4226071
  -OEChem-04182316062D

 16 17  0     0  0  0  0  0  0999 V2000
    3.6750    1.3184    0.0000 N   0  5  0  0  0  0  0  0  0  0  0  0
    2.0570    1.3184    0.0000 N   0  0  0  0  0  0  0  0  0  0  0  0
    3.3660    2.2694    0.0000 N   0  0  0  0  0  0  0  0  0  0  0  0
    2.3660    2.2694    0.0000 N   0  0  0  0  0  0  0  0  0  0  0  0
    2.8660   -0.2694    0.0000 C   0  0  0  0  0  0  0  0  0  0  0  0
    2.0000   -0.7694    0.0000 C   0  0  0  0  0  0  0  0  0  0  0  0
    3.7320   -0.7694    0.0000 C   0  0  0  0  0  0  0  0  0  0  0  0
    2.8660    0.7306    0.0000 C   0  0  0  0  0  0  0  0  0  0  0  0
    2.0000   -1.7694    0.0000 C   0  0  0  0  0  0  0  0  0  0  0  0
    3.7320   -1.7694    0.0000 C   0  0  0  0  0  0  0  0  0  0  0  0
    2.8660   -2.2694    0.0000 C   0  0  0  0  0  0  0  0  0  0  0  0
    1.4631   -0.4594    0.0000 H   0  0  0  0  0  0  0  0  0  0  0  0
    4.2690   -0.4594    0.0000 H   0  0  0  0  0  0  0  0  0  0  0  0
    1.4631   -2.0794    0.0000 H   0  0  0  0  0  0  0  0  0  0  0  0
    4.2690   -2.0794    0.0000 H   0  0  0  0  0  0  0  0  0  0  0  0
    2.8660   -2.8894    0.0000 H   0  0  0  0  0  0  0  0  0  0  0  0
  1  3  1  0  0  0  0
  1  8  1  0  0  0  0
  2  4  1  0  0  0  0
  2  8  2  0  0  0  0
  3  4  2  0  0  0  0
  5  6  2  0  0  0  0
  5  7  1  0  0  0  0
  5  8  1  0  0  0  0
  6  9  1  0  0  0  0
  6 12  1  0  0  0  0
  7 10  2  0  0  0  0
  7 13  1  0  0  0  0
  9 11  2  0  0  0  0
  9 14  1  0  0  0  0
 10 11  1  0  0  0  0
 10 15  1  0  0  0  0
 11 16  1  0  0  0  0
M  CHG  1   1  -1
M  END
> <PUBCHEM_COMPOUND_CID>
4226071

> <PUBCHEM_COMPOUND_CANONICALIZED>
1

> <PUBCHEM_CACTVS_COMPLEXITY>
116

> <PUBCHEM_CACTVS_HBOND_ACCEPTOR>
4

> <PUBCHEM_CACTVS_HBOND_DONOR>
0

> <PUBCHEM_CACTVS_ROTATABLE_BOND>
1

> <PUBCHEM_CACTVS_SUBSKEYS>
AAADcYBjgAAAAAAAAAAAAAAAAAAAAWAAAAAwAAAAAAAAAAABwAAAHAAIAAAADACBGwAxEIQAAACiAiJiIACCAAIgAAAciCAgBJgIIKKAkRGAIABggAAIiAcQgAAOAAAAAAAAAAAAAAAAAAAAAAAAAAAAAA==

> <PUBCHEM_IUPAC_OPENEYE_NAME>
5-phenyl-1,2,3-triaza-4-azanidacyclopenta-2,5-diene

> <PUBCHEM_IUPAC_CAS_NAME>
5-phenyl-1,2,3-triaza-4-azanidacyclopenta-2,5-diene

> <PUBCHEM_IUPAC_NAME_MARKUP>
5-phenyl-1,2,3-triaza-4-azanidacyclopenta-2,5-diene

> <PUBCHEM_IUPAC_NAME>
5-phenyl-1,2,3-triaza-4-azanidacyclopenta-2,5-diene

> <PUBCHEM_IUPAC_SYSTEMATIC_NAME>
5-phenyl-1,2,3-triaza-4-azanidacyclopenta-2,5-diene

> <PUBCHEM_IUPAC_TRADITIONAL_NAME>
5-phenyl-1,2,3-triaza-4-azanidacyclopenta-2,5-diene

> <PUBCHEM_IUPAC_INCHI>
InChI=1S/C7H5N4/c1-2-4-6(5-3-1)7-8-10-11-9-7/h1-5H/q-1

> <PUBCHEM_IUPAC_INCHIKEY>
LBCIMHAWIRLWHX-UHFFFAOYSA-N

> <PUBCHEM_XLOGP3_AA>
0.5

> <PUBCHEM_EXACT_MASS>
145.051421176

> <PUBCHEM_MOLECULAR_FORMULA>
C7H5N4-

> <PUBCHEM_MOLECULAR_WEIGHT>
145.14

> <PUBCHEM_OPENEYE_CAN_SMILES>
C1=CC=C(C=C1)C2=NN=N[N-]2

> <PUBCHEM_OPENEYE_ISO_SMILES>
C1=CC=C(C=C1)C2=NN=N[N-]2

> <PUBCHEM_CACTVS_TPSA>
39.7

> <PUBCHEM_MONOISOTOPIC_WEIGHT>
145.051421176

> <PUBCHEM_TOTAL_CHARGE>
-1

> <PUBCHEM_HEAVY_ATOM_COUNT>
11

> <PUBCHEM_ATOM_DEF_STEREO_COUNT>
0

> <PUBCHEM_ATOM_UDEF_STEREO_COUNT>
0

> <PUBCHEM_BOND_DEF_STEREO_COUNT>
0

> <PUBCHEM_BOND_UDEF_STEREO_COUNT>
0

> <PUBCHEM_ISOTOPIC_ATOM_COUNT>
0

> <PUBCHEM_COMPONENT_COUNT>
1

> <PUBCHEM_CACTVS_TAUTO_COUNT>
-1

> <PUBCHEM_COORDINATE_TYPE>
1
5
255

> <PUBCHEM_BONDANNOTATIONS>
1  3  8
1  8  8
10  11  8
2  4  8
2  8  8
3  4  8
5  6  8
5  7  8
6  9  8
7  10  8
9  11  8

$$$$
