----- GAMESS execution script 'rungms' -----
This job is running on host rainier
under operating system Linux at Tue Apr 18 01:30:16 PM EDT 2023
Available scratch disk space (Kbyte units) at beginning of the job is
Filesystem      1K-blocks      Used  Available Use% Mounted on
/dev/sdd1      5814095948 374793712 5146259728   7% /home2
GAMESS temporary binary files will be written to /home2/jianhuang/Downloads/charmm-gui-8183636055/gamess/src
GAMESS supplementary output files will be written to /home2/jianhuang/Downloads/charmm-gui-8183636055/gamess/src
Copying input file b3lyp.inp to your run's scratch directory...

 Distributed Data Interface kickoff program.
 Initiating 1 compute processes on 1 nodes to run the following command:
 /home/zgjia/Software/GAMESS/gamess/gamess.00.x b3lyp 

          ******************************************************
          *         GAMESS VERSION = 20 APR 2017 (R1)          *
          *             FROM IOWA STATE UNIVERSITY             *
          * M.W.SCHMIDT, K.K.BALDRIDGE, J.A.BOATZ, S.T.ELBERT, *
          *   M.S.GORDON, J.H.JENSEN, S.KOSEKI, N.MATSUNAGA,   *
          *          K.A.NGUYEN, S.J.SU, T.L.WINDUS,           *
          *       TOGETHER WITH M.DUPUIS, J.A.MONTGOMERY       *
          *         J.COMPUT.CHEM.  14, 1347-1363(1993)        *
          **************** 64 BIT LINUX VERSION ****************

  SINCE 1993, STUDENTS AND POSTDOCS WORKING AT IOWA STATE UNIVERSITY
  AND ALSO IN THEIR VARIOUS JOBS AFTER LEAVING ISU HAVE MADE IMPORTANT
  CONTRIBUTIONS TO THE CODE:
     IVANA ADAMOVIC, CHRISTINE AIKENS, YURI ALEXEEV, POOJA ARORA,
     ANDREY ASADCHEV, ROB BELL, PRADIPTA BANDYOPADHYAY, JONATHAN BENTZ,
     BRETT BODE, KURT BRORSEN, CALEB CARLIN, GALINA CHABAN, WEI CHEN,
     CHEOL HO CHOI, PAUL DAY, ALBERT DEFUSCO, NUWAN DESILVA, TIM DUDLEY,
     DMITRI FEDOROV, GRAHAM FLETCHER, MARK FREITAG, KURT GLAESEMANN,
     DAN KEMP, GRANT MERRILL, NORIYUKI MINEZAWA, JONATHAN MULLIN,
     TAKESHI NAGATA, SEAN NEDD, HEATHER NETZLOFF, BOSILJKA NJEGIC, RYAN OLSON,
     MIKE PAK, SPENCER PRUITT, LUKE ROSKOP, JIM SHOEMAKER, LYUDMILA SLIPCHENKO,
     TONY SMITH, SAROM SOK LEANG, JIE SONG, TETSUYA TAKETSUGU, SIMON WEBB,
     PENG XU, SOOHAENG YOO, FEDERICO ZAHARIEV

  ADDITIONAL CODE HAS BEEN PROVIDED BY COLLABORATORS IN OTHER GROUPS:
     IOWA STATE UNIVERSITY:
          JOE IVANIC, AARON WEST, LAIMUTIS BYTAUTAS, KLAUS RUEDENBERG
     UNIVERSITY OF TOKYO: KIMIHIKO HIRAO, TAKAHITO NAKAJIMA,
          TAKAO TSUNEDA, MUNEAKI KAMIYA, SUSUMU YANAGISAWA,
          KIYOSHI YAGI, MAHITO CHIBA, SEIKEN TOKURA, NAOAKI KAWAKAMI
     UNIVERSITY OF AARHUS: FRANK JENSEN
     UNIVERSITY OF IOWA: VISVALDAS KAIRYS, HUI LI
     NATIONAL INST. OF STANDARDS AND TECHNOLOGY: WALT STEVENS, DAVID GARMER
     UNIVERSITY OF PISA: BENEDETTA MENNUCCI, JACOPO TOMASI
     UNIVERSITY OF MEMPHIS: HENRY KURTZ, PRAKASHAN KORAMBATH
     UNIVERSITY OF ALBERTA: TOBY ZENG, MARIUSZ KLOBUKOWSKI
     UNIVERSITY OF NEW ENGLAND: MARK SPACKMAN
     MIE UNIVERSITY: HIROAKI UMEDA
     NAT. INST. OF ADVANCED INDUSTRIAL SCIENCE AND TECHNOLOGY: KAZUO KITAURA
     MICHIGAN STATE UNIVERSITY:
          KAROL KOWALSKI, MARTA WLOCH, JEFFREY GOUR, JESSE LUTZ,
          WEI LI, PIOTR PIECUCH
     UNIVERSITY OF SILESIA: MONIKA MUSIAL, STANISLAW KUCHARSKI
     FACULTES UNIVERSITAIRES NOTRE-DAME DE LA PAIX:
          OLIVIER QUINET, BENOIT CHAMPAGNE
     UNIVERSITY OF CALIFORNIA - SANTA BARBARA: BERNARD KIRTMAN
     INSTITUTE FOR MOLECULAR SCIENCE:
          KAZUYA ISHIMURA, MICHIO KATOUDA, AND SHIGERU NAGASE
     UNIVERSITY OF NOTRE DAME: ANNA POMOGAEVA, DAN CHIPMAN
     KYUSHU UNIVERSITY:
          HARUYUKI NAKANO,
          FENG LONG GU, JACEK KORCHOWIEC, MARCIN MAKOWSKI, AND YURIKO AOKI,
          HIROTOSHI MORI AND EISAKU MIYOSHI
     PENNSYLVANIA STATE UNIVERSITY:
          TZVETELIN IORDANOV, CHET SWALINA, JONATHAN SKONE,
          SHARON HAMMES-SCHIFFER
     WASEDA UNIVERSITY:
          MASATO KOBAYASHI, TOMOKO AKAMA, TSUGUKI TOUMA,
          TAKESHI YOSHIKAWA, YASUHIRO IKABATA, JUNJI SEINO,
          YUYA NAKAJIMA, HIROMI NAKAI
     NANJING UNIVERSITY: SHUHUA LI
     UNIVERSITY OF NEBRASKA:
          PEIFENG SU, DEJUN SI, NANDUN THELLAMUREGE, YALI WANG, HUI LI
     UNIVERSITY OF ZURICH: ROBERTO PEVERATI, KIM BALDRIDGE
     N. COPERNICUS UNIVERSITY AND JACKSON STATE UNIVERSITY:
          MARIA BARYSZ
     UNIVERSITY OF COPENHAGEN: Jimmy Kromann, CASPER STEINMANN
     TOKYO INSTITUTE OF TECHNOLOGY: HIROYA NAKATA
     NAGOYA UNIVERSITY: YOSHIO NISHIMOTO, STEPHAN IRLE
     MOSCOW STATE UNIVERSITY: VLADIMIR MIRONOV

 EXECUTION OF GAMESS BEGUN Tue Apr 18 13:30:16 2023

            ECHO OF THE FIRST FEW INPUT CARDS -
 INPUT CARD>! geometry optimization                                                         
 INPUT CARD>!                                                                               
 INPUT CARD> $CONTRL COORD=CART  ! SCFTYP=RHF                                               
 INPUT CARD>  NZVAR=0 MULT=1 ICHARG=-1                                                      
 INPUT CARD>  AIMPAC=.TRUE.         ! Requests wfn file to be written.                      
 INPUT CARD>  RUNTYP=OPTIMIZE                                                               
 INPUT CARD>  dfttyp=b3lyp                                                                  
 INPUT CARD> $END                                                                           
 INPUT CARD> $SYSTEM MWORDS=5 $END                                                          
 INPUT CARD> $STATPT OPTTOL=1.0E-4 nstep=2 $END                                             
 INPUT CARD> $GUESS GUESS=HUCKEL $END                                                       
 INPUT CARD> $BASIS GBASIS=N31 NGAUSS=6 NDFUNC=1 NPFUNC=1 $END                              
 INPUT CARD> $DATA                                                                          
 INPUT CARD>Initial configuration generated from OpenBabel online tool                      
 INPUT CARD>C1                                                                              
 INPUT CARD> C         6.0     -1.1736822797  -1.2066086008  -0.0301408419                  
 INPUT CARD> H         1.0      -0.6095159838  -2.1303733524  -0.051387728                  
 INPUT CARD> C         6.0      -0.4566785994   0.0020078297  -0.000657324                  
 INPUT CARD> C         6.0      -1.1749611176   1.2096482446   0.040244113                  
 INPUT CARD> H         1.0      -0.6129398732   2.1342399107   0.081804819                  
 INPUT CARD> C         6.0      -2.5690765506   1.2061970445   0.025881138                  
 INPUT CARD> H         1.0      -3.1086060729   2.1473662892   0.027276021                  
 INPUT CARD> C         6.0      -3.2752836507  -0.0001391436  -0.000812403                  
 INPUT CARD> H         1.0      -4.3592469939  -0.0013048772   0.004290618                  
 INPUT CARD> C         6.0      -2.5673712811  -1.2055515471  -0.022405953                  
 INPUT CARD> H         1.0      -3.1045210598  -2.1476130842  -0.048711663                  
 INPUT CARD> C         6.0       1.0018406621   0.0001169327  -0.015427237                  
 INPUT CARD> N         7.0       1.7541789270   1.1192064641  -0.116750265                  
 INPUT CARD> N         7.0       3.0276237356   0.6718412343  -0.059931138                  
 INPUT CARD> N         7.0       3.0244712816  -0.6773785922   0.069704927                  
 INPUT CARD> N         7.0      1.7492117547  -1.1212591080   0.0982710579                  
 INPUT CARD> $END                                                                           
    5000000 WORDS OF MEMORY AVAILABLE


                    * * * WARNING * * *
 OLD KEYWORD COORD=CART SELECTED, AUTOMATICALLY CHANGED TO COORD=PRINAXIS.
 YOUR MOLECULE'S COORDINATES WILL BE CHANGED TO PRINCIPAL AXES BY
   A) TRANSLATION TO THE CENTER OF MASS, THEN
   B) ROTATION TO HAVE A DIAGONAL MOMENT OF INERTIA TENSOR.

 HOWEVER, NOTHING ELSE IN YOUR INPUT WILL BE ROTATED IN THE SAME WAY,
 SO IF YOU HAVE A $VEC, $VIB, $GRAD, $HESS, EFP PARTICLE COORDINATES,
 OR ANYTHING ELSE THAT DEPENDS ON THE INITIAL ORIENTATION, THAT DATA
 WILL NOT BE USED CORRECTLY IN THIS RUN.

 THE PURPOSE OF COORD=PRINAXIS IS TO BE USED ONCE, ONLY AT THE VERY
 BEGINNING OF A SERIES OF COMPUTATIONS, PERHAPS TO FIND THE SYMMETRY
 UNIQUE ATOMS FROM AN ARBITRARY INITIAL ORIENTATION.

 AFTER THE FIRST RUN, YOU SHOULD USE ONLY COORD=UNIQUE, TO ENSURE THAT
 THE COORDINATES WHICH YOU READ IN ARE THE COORDINATES THAT ARE USED.


     BASIS OPTIONS
     -------------
     GBASIS=N31          IGAUSS=       6      POLAR=POPN31  
     NDFUNC=       1     NFFUNC=       0     DIFFSP=       F
     NPFUNC=       1      DIFFS=       F     BASNAM=        


     RUN TITLE
     ---------
 Initial configuration generated from OpenBabel online tool                      

 THE POINT GROUP OF THE MOLECULE IS C1      
 THE ORDER OF THE PRINCIPAL AXIS IS     0

 THE MOMENTS OF INERTIA ARE (AMU-ANGSTROM**2)
 IXX=   136.784   IYY=   716.874   IZZ=   852.737

 ATOM      ATOMIC                      COORDINATES (BOHR)
           CHARGE         X                   Y                   Z
 C           6.0     2.2080885915        2.2794561807       -0.0970776889
 H           1.0     1.1410483999        4.0235850589       -0.1677864385
 C           6.0     0.8543551293       -0.0038188556        0.0002573573
 C           6.0     2.2129301871       -2.2834987457        0.1175160940
 H           1.0     1.1518084990       -4.0295752613        0.2279026674
 C           6.0     4.8474062659       -2.2761368480        0.0886915236
 H           1.0     5.8678846059       -4.0538441340        0.1225070061
 C           6.0     6.1807424655        0.0029138050       -0.0032828987
 H           1.0     8.2291400693        0.0063199063        0.0050985774
 C           6.0     4.8417877207        2.2790460303       -0.0839972842
 H           1.0     5.8559091201        4.0586221179       -0.1661227297
 C           6.0    -1.9018640028       -0.0021325047       -0.0260703306
 N           7.0    -3.3226021699       -2.1207049118       -0.1788682261
 N           7.0    -5.7294346836       -1.2747347163       -0.0851880730
 N           7.0    -5.7246441004        1.2788949423        0.1141764245
 N           7.0    -3.3151532147        2.1197513826        0.1517216588

          INTERNUCLEAR DISTANCES (ANGS.)
          ------------------------------

                1 C          2 H          3 C          4 C          5 H     

   1 C       0.0000000    1.0826248 *  1.4056021 *  2.4172821 *  3.3894295  
   2 H       1.0826248 *  0.0000000    2.1384533 *  3.3887858    4.2666941  
   3 C       1.4056021 *  2.1384533 *  0.0000000    1.4057020 *  2.1395400 *
   4 C       2.4172821 *  3.3887858    1.4057020 *  0.0000000    1.0828042 *
   5 H       3.3894295    4.2666941    2.1395400 *  1.0828042 *  0.0000000  
   6 C       2.7878118 *  3.8702132    2.4316663 *  1.3941937 *  2.1658397 *
   7 H       3.8725152    4.9548659    3.4111673    2.1490617 *  2.4962964 *
   8 C       2.4234597 *  3.4127369    2.8186059 *  2.4241753 *  3.4132791  
   9 H       3.4061364    4.3123677    3.9025729    3.4069600    4.3129314  
  10 C       1.3937109 *  2.1654867 *  2.4318093 *  2.7885339 *  3.8710294  
  11 H       2.1480160 *  2.4950661 *  3.4109015    3.8732826    4.9557317  
  12 C       2.4878310 *  2.6714701 *  1.4585953 *  2.4908897 *  2.6779565 *
  13 N       3.7402257    4.0188425    2.4798188 *  2.9347382 *  2.5832089 *
  14 N       4.6022205    4.5914339    3.5485987    4.2380409    3.9258633  
  15 N       4.2325580    3.9155741    3.5475233    4.6040168    4.5974020  
  16 N       2.9269581 *  2.5698844 *  2.4773913 *  3.7399576    4.0222264  

                6 C          7 H          8 C          9 H         10 C     

   1 C       2.7878118 *  3.8725152    2.4234597 *  3.4061364    1.3937109 *
   2 H       3.8702132    4.9548659    3.4127369    4.3123677    2.1654867 *
   3 C       2.4316663 *  3.4111673    2.8186059 *  3.9025729    2.4318093 *
   4 C       1.3941937 *  2.1490617 *  2.4241753 *  3.4069600    2.7885339 *
   5 H       2.1658397 *  2.4962964 *  3.4132791    4.3129314    3.8710294  
   6 C       0.0000000    1.0848473 *  1.3981016 *  2.1594530 *  2.4122325 *
   7 H       1.0848473 *  0.0000000    2.1541472 *  2.4862459 *  3.3966839  
   8 C       1.3981016 *  2.1541472 *  0.0000000    1.0839760 *  1.3980791 *
   9 H       2.1594530 *  2.4862459 *  1.0839760 *  0.0000000    2.1591066 *
  10 C       2.4122325 *  3.3966839    1.3980791 *  2.1591066 *  0.0000000  
  11 H       3.3971028    4.2956535    2.1547850 *  2.4867218 *  1.0847589 *
  12 C       3.7693216    4.6377016    4.2771493    5.3611241    3.7673544  
  13 N       4.3264823    4.9723771    5.1538209    6.2164438    4.9080747  
  14 N       5.6228066    6.3117427    6.3389032    7.4177564    5.9016931  
  15 N       5.9023347    6.7524530    6.3364452    7.4148938    5.6174865  
  16 N       4.9061091    5.8555398    5.1490078    6.2109901    4.3190922  

               11 H         12 C         13 N         14 N         15 N     

   1 C       2.1480160 *  2.4878310 *  3.7402257    4.6022205    4.2325580  
   2 H       2.4950661 *  2.6714701 *  4.0188425    4.5914339    3.9155741  
   3 C       3.4109015    1.4585953 *  2.4798188 *  3.5485987    3.5475233  
   4 C       3.8732826    2.4908897 *  2.9347382 *  4.2380409    4.6040168  
   5 H       4.9557317    2.6779565 *  2.5832089 *  3.9258633    4.5974020  
   6 C       3.3971028    3.7693216    4.3264823    5.6228066    5.9023347  
   7 H       4.2956535    4.6377016    4.9723771    6.3117427    6.7524530  
   8 C       2.1547850 *  4.2771493    5.1538209    6.3389032    6.3364452  
   9 H       2.4867218 *  5.3611241    6.2164438    7.4177564    7.4148938  
  10 C       1.0847589 *  3.7673544    4.9080747    5.9016931    5.6174865  
  11 H       0.0000000    4.6342269    5.8552288    6.7492702    6.3039796  
  12 C       4.6342269    0.0000000    1.3522724 *  2.1347110 *  2.1347792 *
  13 N       5.8552288    1.3522724 *  0.0000000    1.3509351 *  2.2081952 *
  14 N       6.7492702    2.1347110 *  1.3509351 *  0.0000000    1.3554370 *
  15 N       6.3039796    2.1347792 *  2.2081952 *  1.3554370 *  0.0000000  
  16 N       4.9632377    1.3523961 *  2.2507654 *  2.2078437 *  1.3506046 *

               16 N     

   1 C       2.9269581 *
   2 H       2.5698844 *
   3 C       2.4773913 *
   4 C       3.7399576  
   5 H       4.0222264  
   6 C       4.9061091  
   7 H       5.8555398  
   8 C       5.1490078  
   9 H       6.2109901  
  10 C       4.3190922  
  11 H       4.9632377  
  12 C       1.3523961 *
  13 N       2.2507654 *
  14 N       2.2078437 *
  15 N       1.3506046 *
  16 N       0.0000000  

  * ... LESS THAN  3.000


     ATOMIC BASIS SET
     ----------------
 THE CONTRACTED PRIMITIVE FUNCTIONS HAVE BEEN UNNORMALIZED
 THE CONTRACTED BASIS FUNCTIONS ARE NOW NORMALIZED TO UNITY

  SHELL TYPE  PRIMITIVE        EXPONENT          CONTRACTION COEFFICIENT(S)

 C         

      1   S       1          3047.5248800    0.001834737132
      1   S       2           457.3695180    0.014037322813
      1   S       3           103.9486850    0.068842622264
      1   S       4            29.2101553    0.232184443216
      1   S       5             9.2866630    0.467941348435
      1   S       6             3.1639270    0.362311985337

      2   L       7             7.8682723   -0.119332419775    0.068999066591
      2   L       8             1.8812885   -0.160854151696    0.316423960957
      2   L       9             0.5442493    1.143456437840    0.744308290898

      3   L      10             0.1687145    1.000000000000    1.000000000000

      4   D      11             0.8000000    1.000000000000

 H         

      5   S      12            18.7311370    0.033494604338
      5   S      13             2.8253944    0.234726953484
      5   S      14             0.6401217    0.813757326146

      6   S      15             0.1612778    1.000000000000

      7   P      16             1.1000000    1.000000000000

 C         

      8   S      17          3047.5248800    0.001834737132
      8   S      18           457.3695180    0.014037322813
      8   S      19           103.9486850    0.068842622264
      8   S      20            29.2101553    0.232184443216
      8   S      21             9.2866630    0.467941348435
      8   S      22             3.1639270    0.362311985337

      9   L      23             7.8682723   -0.119332419775    0.068999066591
      9   L      24             1.8812885   -0.160854151696    0.316423960957
      9   L      25             0.5442493    1.143456437840    0.744308290898

     10   L      26             0.1687145    1.000000000000    1.000000000000

     11   D      27             0.8000000    1.000000000000

 C         

     12   S      28          3047.5248800    0.001834737132
     12   S      29           457.3695180    0.014037322813
     12   S      30           103.9486850    0.068842622264
     12   S      31            29.2101553    0.232184443216
     12   S      32             9.2866630    0.467941348435
     12   S      33             3.1639270    0.362311985337

     13   L      34             7.8682723   -0.119332419775    0.068999066591
     13   L      35             1.8812885   -0.160854151696    0.316423960957
     13   L      36             0.5442493    1.143456437840    0.744308290898

     14   L      37             0.1687145    1.000000000000    1.000000000000

     15   D      38             0.8000000    1.000000000000

 H         

     16   S      39            18.7311370    0.033494604338
     16   S      40             2.8253944    0.234726953484
     16   S      41             0.6401217    0.813757326146

     17   S      42             0.1612778    1.000000000000

     18   P      43             1.1000000    1.000000000000

 C         

     19   S      44          3047.5248800    0.001834737132
     19   S      45           457.3695180    0.014037322813
     19   S      46           103.9486850    0.068842622264
     19   S      47            29.2101553    0.232184443216
     19   S      48             9.2866630    0.467941348435
     19   S      49             3.1639270    0.362311985337

     20   L      50             7.8682723   -0.119332419775    0.068999066591
     20   L      51             1.8812885   -0.160854151696    0.316423960957
     20   L      52             0.5442493    1.143456437840    0.744308290898

     21   L      53             0.1687145    1.000000000000    1.000000000000

     22   D      54             0.8000000    1.000000000000

 H         

     23   S      55            18.7311370    0.033494604338
     23   S      56             2.8253944    0.234726953484
     23   S      57             0.6401217    0.813757326146

     24   S      58             0.1612778    1.000000000000

     25   P      59             1.1000000    1.000000000000

 C         

     26   S      60          3047.5248800    0.001834737132
     26   S      61           457.3695180    0.014037322813
     26   S      62           103.9486850    0.068842622264
     26   S      63            29.2101553    0.232184443216
     26   S      64             9.2866630    0.467941348435
     26   S      65             3.1639270    0.362311985337

     27   L      66             7.8682723   -0.119332419775    0.068999066591
     27   L      67             1.8812885   -0.160854151696    0.316423960957
     27   L      68             0.5442493    1.143456437840    0.744308290898

     28   L      69             0.1687145    1.000000000000    1.000000000000

     29   D      70             0.8000000    1.000000000000

 H         

     30   S      71            18.7311370    0.033494604338
     30   S      72             2.8253944    0.234726953484
     30   S      73             0.6401217    0.813757326146

     31   S      74             0.1612778    1.000000000000

     32   P      75             1.1000000    1.000000000000

 C         

     33   S      76          3047.5248800    0.001834737132
     33   S      77           457.3695180    0.014037322813
     33   S      78           103.9486850    0.068842622264
     33   S      79            29.2101553    0.232184443216
     33   S      80             9.2866630    0.467941348435
     33   S      81             3.1639270    0.362311985337

     34   L      82             7.8682723   -0.119332419775    0.068999066591
     34   L      83             1.8812885   -0.160854151696    0.316423960957
     34   L      84             0.5442493    1.143456437840    0.744308290898

     35   L      85             0.1687145    1.000000000000    1.000000000000

     36   D      86             0.8000000    1.000000000000

 H         

     37   S      87            18.7311370    0.033494604338
     37   S      88             2.8253944    0.234726953484
     37   S      89             0.6401217    0.813757326146

     38   S      90             0.1612778    1.000000000000

     39   P      91             1.1000000    1.000000000000

 C         

     40   S      92          3047.5248800    0.001834737132
     40   S      93           457.3695180    0.014037322813
     40   S      94           103.9486850    0.068842622264
     40   S      95            29.2101553    0.232184443216
     40   S      96             9.2866630    0.467941348435
     40   S      97             3.1639270    0.362311985337

     41   L      98             7.8682723   -0.119332419775    0.068999066591
     41   L      99             1.8812885   -0.160854151696    0.316423960957
     41   L     100             0.5442493    1.143456437840    0.744308290898

     42   L     101             0.1687145    1.000000000000    1.000000000000

     43   D     102             0.8000000    1.000000000000

 N         

     44   S     103          4173.5114600    0.001834772160
     44   S     104           627.4579110    0.013994627002
     44   S     105           142.9020930    0.068586551812
     44   S     106            40.2343293    0.232240873040
     44   S     107            12.8202129    0.469069948082
     44   S     108             4.3904370    0.360455199063

     45   L     109            11.6263619   -0.114961181702    0.067579743878
     45   L     110             2.7162798   -0.169117478561    0.323907295893
     45   L     111             0.7722184    1.145851947027    0.740895139755

     46   L     112             0.2120315    1.000000000000    1.000000000000

     47   D     113             0.8000000    1.000000000000

 N         

     48   S     114          4173.5114600    0.001834772160
     48   S     115           627.4579110    0.013994627002
     48   S     116           142.9020930    0.068586551812
     48   S     117            40.2343293    0.232240873040
     48   S     118            12.8202129    0.469069948082
     48   S     119             4.3904370    0.360455199063

     49   L     120            11.6263619   -0.114961181702    0.067579743878
     49   L     121             2.7162798   -0.169117478561    0.323907295893
     49   L     122             0.7722184    1.145851947027    0.740895139755

     50   L     123             0.2120315    1.000000000000    1.000000000000

     51   D     124             0.8000000    1.000000000000

 N         

     52   S     125          4173.5114600    0.001834772160
     52   S     126           627.4579110    0.013994627002
     52   S     127           142.9020930    0.068586551812
     52   S     128            40.2343293    0.232240873040
     52   S     129            12.8202129    0.469069948082
     52   S     130             4.3904370    0.360455199063

     53   L     131            11.6263619   -0.114961181702    0.067579743878
     53   L     132             2.7162798   -0.169117478561    0.323907295893
     53   L     133             0.7722184    1.145851947027    0.740895139755

     54   L     134             0.2120315    1.000000000000    1.000000000000

     55   D     135             0.8000000    1.000000000000

 N         

     56   S     136          4173.5114600    0.001834772160
     56   S     137           627.4579110    0.013994627002
     56   S     138           142.9020930    0.068586551812
     56   S     139            40.2343293    0.232240873040
     56   S     140            12.8202129    0.469069948082
     56   S     141             4.3904370    0.360455199063

     57   L     142            11.6263619   -0.114961181702    0.067579743878
     57   L     143             2.7162798   -0.169117478561    0.323907295893
     57   L     144             0.7722184    1.145851947027    0.740895139755

     58   L     145             0.2120315    1.000000000000    1.000000000000

     59   D     146             0.8000000    1.000000000000

 TOTAL NUMBER OF BASIS SET SHELLS             =   59
 NUMBER OF CARTESIAN GAUSSIAN BASIS FUNCTIONS =  190
 NUMBER OF ELECTRONS                          =   76
 CHARGE OF MOLECULE                           =   -1
 SPIN MULTIPLICITY                            =    1
 NUMBER OF OCCUPIED ORBITALS (ALPHA)          =   38
 NUMBER OF OCCUPIED ORBITALS (BETA )          =   38
 TOTAL NUMBER OF ATOMS                        =   16
 THE NUCLEAR REPULSION ENERGY IS      530.6710600484

     LEBEDEV GRID-BASED DFT OPTIONS
     ------------------------------
     DFTTYP=B3LYP   
     NRAD  =      96     NLEB  =     302
     NRAD0 =      24     NLEB0 =     110
     SWOFF =    5.00E-03 (PURE SCF -> DFT)
     SWITCH=    3.00E-04 (COARSE -> TIGHT GRID)
     THRESH=    0.00E+00 GTHRE=    1.00E+00

 GRIMME'S EMPIRICAL DISPERSION CORRECTION= F

     $CONTRL OPTIONS
     ---------------
 SCFTYP=RHF          RUNTYP=OPTIMIZE     EXETYP=RUN     
 MPLEVL=       0     CITYP =NONE         CCTYP =NONE         VBTYP =NONE    
 DFTTYP=B3LYP        TDDFT =NONE    
 MULT  =       1     ICHARG=      -1     NZVAR =       0     COORD =PRINAXIS
 PP    =NONE         RELWFN=NONE         LOCAL =NONE         NUMGRD=       F
 ISPHER=      -1     NOSYM =       0     MAXIT =      30     UNITS =ANGS    
 PLTORB=       F     MOLPLT=       F     AIMPAC=       T     FRIEND=        
 NPRINT=       7     IREST =       0     GEOM  =INPUT   
 NORMF =       0     NORMP =       0     ITOL  =      20     ICUT  =       9
 INTTYP=BEST         GRDTYP=BEST         QMTTOL= 1.0E-06

     $SYSTEM OPTIONS
     ---------------
  REPLICATED MEMORY=     5000000 WORDS (ON EVERY NODE).
 DISTRIBUTED MEMDDI=           0 MILLION WORDS IN AGGREGATE,
 MEMDDI DISTRIBUTED OVER   1 PROCESSORS IS           0 WORDS/PROCESSOR.
 TOTAL MEMORY REQUESTED ON EACH PROCESSOR=     5000000 WORDS.
 TIMLIM=      525600.00 MINUTES, OR     365.0 DAYS.
 PARALL= F  BALTYP=  DLB     KDIAG=    0  COREFL= F
 MXSEQ2=     300 MXSEQ3=     150  mem10=         0

          ----------------
          PROPERTIES INPUT
          ----------------

     MOMENTS            FIELD           POTENTIAL          DENSITY
 IEMOM =       1   IEFLD =       0   IEPOT =       0   IEDEN =       0
 WHERE =COMASS     WHERE =NUCLEI     WHERE =NUCLEI     WHERE =NUCLEI  
 OUTPUT=BOTH       OUTPUT=BOTH       OUTPUT=BOTH       OUTPUT=BOTH    
 IEMINT=       0   IEFINT=       0                     IEDINT=       0
                                                       MORB  =       0
          EXTRAPOLATION IN EFFECT
          DIIS IN EFFECT
 ORBITAL PRINTING OPTION: NPREO=     1   190     2     1

     -------------------------------
     INTEGRAL TRANSFORMATION OPTIONS
     -------------------------------
     NWORD  =            0
     CUTOFF = 1.0E-09     MPTRAN =       0
     DIRTRF =       F     AOINTS =DUP     

          ----------------------
          INTEGRAL INPUT OPTIONS
          ----------------------
 NOPK  =       1 NORDER=       0 SCHWRZ=       T

     ------------------------------------------
     THE POINT GROUP IS C1 , NAXIS= 0, ORDER= 1
     ------------------------------------------

     DIMENSIONS OF THE SYMMETRY SUBSPACES ARE
 A   =  190

 ..... DONE SETTING UP THE RUN .....
 STEP CPU TIME =     0.02 TOTAL CPU TIME =        0.0 (    0.0 MIN)
 TOTAL WALL CLOCK TIME=        0.4 SECONDS, CPU UTILIZATION IS   4.76%


          -----------------------------
          STATIONARY POINT LOCATION RUN
          -----------------------------

 OBTAINING INITIAL HESSIAN, HESS=GUESS   
 CARTESIAN COORDINATE OPTIMIZATION USING BADGER'S RULE FORCE CONSTANT GUESS

          PARAMETERS CONTROLLING GEOMETRY SEARCH ARE
          METHOD =QA                  UPHESS =BFGS    
          NNEG   =         0          NFRZ   =         0
          NSTEP  =         2          IFOLOW =         1
          HESS   =GUESS               RESTAR =         F
          IHREP  =         0          HSSEND =         F
          NPRT   =         0          NPUN   =         0
          OPTTOL = 1.000E-04          RMIN   = 1.500E-03
          RMAX   = 1.000E-01          RLIM   = 7.000E-02
          DXMAX  = 3.000E-01          PURIFY =         F
          MOVIE  =         F          TRUPD  =         T
          TRMAX  = 5.000E-01          TRMIN  = 5.000E-02
          ITBMAT =         5          STPT   =         F
          STSTEP = 1.000E-02          PROJCT=          T

 BEGINNING GEOMETRY SEARCH POINT NSERCH=   0 ...

 COORDINATES OF ALL ATOMS ARE (ANGS)
   ATOM   CHARGE       X              Y              Z
 ------------------------------------------------------------
 C           6.0   1.1684702470   1.2062363515  -0.0513713044
 H           1.0   0.6038168535   2.1291896735  -0.0887887660
 C           6.0   0.4521052972  -0.0020208515   0.0001361876
 C           6.0   1.1710323092  -1.2083755849   0.0621868434
 H           1.0   0.6095108532  -2.1323595524   0.1206009066
 C           6.0   2.5651371137  -1.2044798361   0.0469335365
 H           1.0   3.1051510346  -2.1452020877   0.0648279205
 C           6.0   3.2707082961   0.0015419193  -0.0017372353
 H           1.0   4.3546737055   0.0033443507   0.0026980512
 C           6.0   2.5621639075   1.2060193092  -0.0444494518
 H           1.0   3.0988138800   2.1477304880  -0.0879083691
 C           6.0  -1.0064231614  -0.0011284729  -0.0137958258
 N           7.0  -1.7582454766  -1.1222287917  -0.0946529958
 N           7.0  -3.0318864856  -0.6745606107  -0.0450795901
 N           7.0  -3.0293514179   0.6767621076   0.0604195663
 N           7.0  -1.7543036590   1.1217242057   0.0802876500

          ********************
          1 ELECTRON INTEGRALS
          ********************
 ...... END OF ONE-ELECTRON INTEGRALS ......
 STEP CPU TIME =     0.04 TOTAL CPU TIME =        0.1 (    0.0 MIN)
 TOTAL WALL CLOCK TIME=        0.5 SECONDS, CPU UTILIZATION IS  13.04%

          -------------
          GUESS OPTIONS
          -------------
          GUESS =HUCKEL            NORB  =       0          NORDER=       0
          MIX   =       F          PRTMO =       F          PUNMO =       F
          TOLZ  = 1.0E-08          TOLE  = 1.0E-05
          SYMDEN=       F          PURIFY=       F

 INITIAL GUESS ORBITALS GENERATED BY HUCKEL   ROUTINE.
 HUCKEL GUESS REQUIRES    288408 WORDS.

 SYMMETRIES FOR INITIAL GUESS ORBITALS FOLLOW.   BOTH SET(S).
    38 ORBITALS ARE OCCUPIED (   11 CORE ORBITALS).
    12=A       13=A       14=A       15=A       16=A       17=A       18=A   
    19=A       20=A       21=A       22=A       23=A       24=A       25=A   
    26=A       27=A       28=A       29=A       30=A       31=A       32=A   
    33=A       34=A       35=A       36=A       37=A       38=A       39=A   
    40=A       41=A       42=A       43=A       44=A       45=A       46=A   
    47=A       48=A   
 ...... END OF INITIAL ORBITAL SELECTION ......
 STEP CPU TIME =     0.13 TOTAL CPU TIME =        0.2 (    0.0 MIN)
 TOTAL WALL CLOCK TIME=        0.6 SECONDS, CPU UTILIZATION IS  29.69%

                    ----------------------
                    AO INTEGRAL TECHNOLOGY
                    ----------------------
     S,P,L SHELL ROTATED AXIS INTEGRALS, REPROGRAMMED BY
        KAZUYA ISHIMURA (IMS) AND JOSE SIERRA (SYNSTAR).
     S,P,D,L SHELL ROTATED AXIS INTEGRALS PROGRAMMED BY
        KAZUYA ISHIMURA (INSTITUTE FOR MOLECULAR SCIENCE).
     S,P,D,F,G SHELL TO TOTAL QUARTET ANGULAR MOMENTUM SUM 5,
        ERIC PROGRAM BY GRAHAM FLETCHER (ELORET AND NASA ADVANCED
        SUPERCOMPUTING DIVISION, AMES RESEARCH CENTER).
     S,P,D,F,G,L SHELL GENERAL RYS QUADRATURE PROGRAMMED BY
        MICHEL DUPUIS (PACIFIC NORTHWEST NATIONAL LABORATORY).

          --------------------
          2 ELECTRON INTEGRALS
          --------------------

 THE -PK- OPTION IS OFF, THE INTEGRALS ARE NOT IN SUPERMATRIX FORM.
 STORING   15000 INTEGRALS/RECORD ON DISK, USING 12 BYTES/INTEGRAL.
 TWO ELECTRON INTEGRAL EVALUATION REQUIRES   92166 WORDS OF MEMORY.
 SCHWARZ INEQUALITY OVERHEAD:     16617 INTEGRALS, T=        0.01
 II,JST,KST,LST =  1  1  1  1 NREC =         1 INTLOC =    1
 II,JST,KST,LST =  2  1  1  1 NREC =         1 INTLOC =    2
 II,JST,KST,LST =  3  1  1  1 NREC =         1 INTLOC =   34
 II,JST,KST,LST =  4  1  1  1 NREC =         1 INTLOC =  214
 II,JST,KST,LST =  5  1  1  1 NREC =         1 INTLOC = 1189
 II,JST,KST,LST =  6  1  1  1 NREC =         1 INTLOC = 3245
 II,JST,KST,LST =  7  1  1  1 NREC =         1 INTLOC = 5710
 II,JST,KST,LST =  8  1  1  1 NREC =         2 INTLOC =  997
 II,JST,KST,LST =  9  1  1  1 NREC =         2 INTLOC = 5512
 II,JST,KST,LST = 10  1  1  1 NREC =         4 INTLOC = 1556
 II,JST,KST,LST = 11  1  1  1 NREC =         6 INTLOC =12623
 II,JST,KST,LST = 12  1  1  1 NREC =        13 INTLOC = 6075
 II,JST,KST,LST = 13  1  1  1 NREC =        14 INTLOC = 8702
 II,JST,KST,LST = 14  1  1  1 NREC =        21 INTLOC =13175
 II,JST,KST,LST = 15  1  1  1 NREC =        31 INTLOC =13919
 II,JST,KST,LST = 16  1  1  1 NREC =        51 INTLOC = 3724
 II,JST,KST,LST = 17  1  1  1 NREC =        54 INTLOC =14296
 II,JST,KST,LST = 18  1  1  1 NREC =        59 INTLOC = 7163
 II,JST,KST,LST = 19  1  1  1 NREC =        71 INTLOC = 5012
 II,JST,KST,LST = 20  1  1  1 NREC =        75 INTLOC = 3699
 II,JST,KST,LST = 21  1  1  1 NREC =        98 INTLOC = 8797
 II,JST,KST,LST = 22  1  1  1 NREC =       129 INTLOC = 5430
 II,JST,KST,LST = 23  1  1  1 NREC =       182 INTLOC = 5292
 II,JST,KST,LST = 24  1  1  1 NREC =       190 INTLOC =13470
 II,JST,KST,LST = 25  1  1  1 NREC =       202 INTLOC = 5394
 II,JST,KST,LST = 26  1  1  1 NREC =       227 INTLOC = 8836
 II,JST,KST,LST = 27  1  1  1 NREC =       236 INTLOC = 1484
 II,JST,KST,LST = 28  1  1  1 NREC =       290 INTLOC =12745
 II,JST,KST,LST = 29  1  1  1 NREC =       359 INTLOC =12018
 II,JST,KST,LST = 30  1  1  1 NREC =       469 INTLOC = 5233
 II,JST,KST,LST = 31  1  1  1 NREC =       485 INTLOC = 2265
 II,JST,KST,LST = 32  1  1  1 NREC =       508 INTLOC = 4952
 II,JST,KST,LST = 33  1  1  1 NREC =       552 INTLOC = 6467
 II,JST,KST,LST = 34  1  1  1 NREC =       570 INTLOC = 7821
 II,JST,KST,LST = 35  1  1  1 NREC =       676 INTLOC = 8688
 II,JST,KST,LST = 36  1  1  1 NREC =       807 INTLOC = 3417
 II,JST,KST,LST = 37  1  1  1 NREC =      1010 INTLOC =11314
 II,JST,KST,LST = 38  1  1  1 NREC =      1041 INTLOC = 9104
 II,JST,KST,LST = 39  1  1  1 NREC =      1083 INTLOC = 2990
 II,JST,KST,LST = 40  1  1  1 NREC =      1169 INTLOC = 6732
 II,JST,KST,LST = 41  1  1  1 NREC =      1187 INTLOC = 6071
 II,JST,KST,LST = 42  1  1  1 NREC =      1316 INTLOC = 4434
 II,JST,KST,LST = 43  1  1  1 NREC =      1515 INTLOC = 6069
 II,JST,KST,LST = 44  1  1  1 NREC =      1739 INTLOC =11838
 II,JST,KST,LST = 45  1  1  1 NREC =      1757 INTLOC =10161
 II,JST,KST,LST = 46  1  1  1 NREC =      1881 INTLOC =  404
 II,JST,KST,LST = 47  1  1  1 NREC =      2105 INTLOC = 3417
 II,JST,KST,LST = 48  1  1  1 NREC =      2344 INTLOC =13070
 II,JST,KST,LST = 49  1  1  1 NREC =      2363 INTLOC = 7551
 II,JST,KST,LST = 50  1  1  1 NREC =      2471 INTLOC = 4517
 II,JST,KST,LST = 51  1  1  1 NREC =      2687 INTLOC = 6318
 II,JST,KST,LST = 52  1  1  1 NREC =      2897 INTLOC = 1059
 II,JST,KST,LST = 53  1  1  1 NREC =      2923 INTLOC =13554
 II,JST,KST,LST = 54  1  1  1 NREC =      3080 INTLOC = 7872
 II,JST,KST,LST = 55  1  1  1 NREC =      3363 INTLOC = 9209
 II,JST,KST,LST = 56  1  1  1 NREC =      3660 INTLOC = 3065
 II,JST,KST,LST = 57  1  1  1 NREC =      3709 INTLOC =  487
 II,JST,KST,LST = 58  1  1  1 NREC =      4014 INTLOC = 3429
 II,JST,KST,LST = 59  1  1  1 NREC =      4479 INTLOC = 8734
 SCHWARZ INEQUALITY TEST SKIPPED      753800 INTEGRAL BLOCKS.
 TOTAL NUMBER OF NONZERO TWO-ELECTRON INTEGRALS =            75622254
       5042 INTEGRAL RECORDS WERE STORED ON DISK FILE  8.
  ...... END OF TWO-ELECTRON INTEGRALS .....
 STEP CPU TIME =     5.18 TOTAL CPU TIME =        5.4 (    0.1 MIN)
 TOTAL WALL CLOCK TIME=        5.8 SECONDS, CPU UTILIZATION IS  91.95%

          --------------------------
             R-B3LYP SCF CALCULATION
          --------------------------

     NUCLEAR ENERGY =       530.6710600484
     MAXIT =   30     NPUNCH=    2
     EXTRAP=T  DAMP=F  SHIFT=F  RSTRCT=F  DIIS=T  DEM=F  SOSCF=F
         DENSITY MATRIX CONVERGENCE THRESHOLD=  1.00E-05
     COARSE -> FINE DFT GRID SWITCH THRESHOLD=  3.00E-04 (SWITCH IN $DFT)
                   HF -> DFT SWITCH THRESHOLD=  5.00E-03 (SWOFF IN $DFT)
     MEMORY REQUIRED FOR RHF ITERS=    834337 WORDS.

 DFT CODE IS SWITCHING FROM THE FINE GRID NRAD= 96,  NLEB=  302
                      TO THE COARSE GRID NRAD0= 24, NLEB0=  110

     EXCHANGE FUNCTIONAL   =B88&HFX   
     CORRELATION FUNCTIONAL=LYP88&VWN5
     DFT THRESHOLD         =.862E-08
     GRID CHANGE THRESHOLD =.300E-03
 FOR AN EULER-MACLAURIN QUADRATURE USING  96 RADIAL POINTS:
 SMALLEST GAUSSIAN PRIMITIVE EXPONENT=        0.1612777588 OF TYPE -S-
 ON ATOM NUMBER   2 HAS RADIAL NORMALIZATION=  1.000000
  LARGEST GAUSSIAN PRIMITIVE EXPONENT=     4173.5114600000 OF TYPE -S-
 ON ATOM NUMBER  13 HAS RADIAL NORMALIZATION=  1.000000
 DFT IS SWITCHED OFF, PERFORMING PURE SCF UNTIL SWOFF THRESHOLD IS REACHED.

 ITER EX DEM     TOTAL ENERGY        E CHANGE  DENSITY CHANGE    DIIS ERROR
   1  0  0     -484.3340296537  -484.3340296537   0.263742179   0.510099047
          * * *   INITIATING DIIS PROCEDURE   * * *
   2  1  0     -485.6641690994    -1.3301394457   0.134524947   0.083568734
   3  2  0     -485.7423292961    -0.0781601968   0.048803466   0.040784691
   4  3  0     -485.7612117026    -0.0188824065   0.028536404   0.011939656
   5  4  0     -485.7633998319    -0.0021881293   0.008433530   0.005327100
   6  5  0     -485.7637220865    -0.0003222546   0.002668354   0.001330504
 CONVERGED TO SWOFF, SO DFT CALCULATION IS NOW SWITCHED ON.
          * * *   INITIATING DIIS PROCEDURE   * * *
   7  6  0     -488.4439508163    -2.6802287297   0.159778004   0.111847737
   8  7  0     -488.4954505081    -0.0514996918   0.040941344   0.022219135
   9  8  0     -488.4975162746    -0.0020657665   0.017606477   0.019214094
  10  9  0     -488.5007979975    -0.0032817229   0.005138416   0.003658095
  11 10  0     -488.5009316365    -0.0001336390   0.001208047   0.001355201
  12 11  0     -488.5009418265    -0.0000101900   0.000394179   0.000368706
  13 12  0     -488.5009426218    -0.0000007953   0.000165750   0.000153759
 DFT CODE IS SWITCHING BACK TO THE FINE GRID
          * * *   INITIATING DIIS PROCEDURE   * * *
  14 13  0     -488.4983381223     0.0026044995   0.003621034   0.001484179
  15 14  0     -488.4983602138    -0.0000220914   0.000424392   0.000180485
  16 15  0     -488.4983600158     0.0000001980   0.000291443   0.000214098
  17 16  0     -488.4983605886    -0.0000005728   0.000058796   0.000053426
  18 17  0     -488.4983606071    -0.0000000185   0.000019555   0.000020689
  19 18  0     -488.4983606110    -0.0000000039   0.000006207   0.000004767
  20 19  0     -488.4983606112    -0.0000000002   0.000002330   0.000001696

          -----------------
          DENSITY CONVERGED
          -----------------
     TIME TO FORM FOCK OPERATORS=      91.2 SECONDS (       4.6 SEC/ITER)
     TIME TO SOLVE SCF EQUATIONS=       1.1 SECONDS (       0.1 SEC/ITER)

 FINAL R-B3LYP ENERGY IS     -488.4983606112 AFTER  20 ITERATIONS
 DFT EXCHANGE + CORRELATION ENERGY =       -54.4493944273
 TOTAL ELECTRON NUMBER             =        76.0001549588

          ------------
          EIGENVECTORS
          ------------

                      1          2          3          4          5
                  -14.1720   -14.1717   -14.1523   -14.1523   -10.0652
                     A          A          A          A          A   
    1  C  1  S   -0.000000   0.000000   0.000005   0.000000   0.006534
    2  C  1  S   -0.000006   0.000001   0.000028  -0.000007  -0.000046
    3  C  1  X   -0.000011   0.000004   0.000014  -0.000048  -0.000132
    4  C  1  Y   -0.000000  -0.000000  -0.000001  -0.000013   0.000046
    5  C  1  Z    0.000002  -0.000000   0.000001   0.000007   0.000000
    6  C  1  S    0.000146  -0.000003  -0.000296   0.000281   0.004548
    7  C  1  X    0.000266  -0.000065  -0.000261   0.000618   0.001973
    8  C  1  Y   -0.000020  -0.000056  -0.000084   0.000706  -0.001785
    9  C  1  Z   -0.000004   0.000004   0.000000  -0.000047   0.000077
   10  C  1 XX    0.000005  -0.000003  -0.000018   0.000045  -0.000176
   11  C  1 YY    0.000006   0.000004   0.000024  -0.000036  -0.000163
   12  C  1 ZZ    0.000001  -0.000000   0.000008   0.000010  -0.000195
   13  C  1 XY   -0.000009   0.000002   0.000011  -0.000032  -0.000006
   14  C  1 XZ    0.000001  -0.000000  -0.000001   0.000003  -0.000001
   15  C  1 YZ   -0.000001  -0.000000  -0.000001   0.000003  -0.000002
   16  H  2  S    0.000015  -0.000004  -0.000014   0.000053   0.000062
   17  H  2  S    0.000020   0.000034   0.000098  -0.000517   0.000627
   18  H  2  X   -0.000006   0.000000   0.000003  -0.000028   0.000006
   19  H  2  Y    0.000001  -0.000002  -0.000008   0.000027  -0.000023
   20  H  2  Z   -0.000000   0.000000   0.000002  -0.000002   0.000001
   21  C  3  S   -0.000010  -0.000001  -0.000001  -0.000002   0.000936
   22  C  3  S   -0.000038  -0.000003   0.000003   0.000006   0.000135
   23  C  3  X    0.000020   0.000001  -0.000007  -0.000011  -0.000053
   24  C  3  Y    0.000000  -0.000002  -0.000012   0.000007  -0.000007
   25  C  3  Z    0.000001  -0.000000  -0.000000  -0.000000   0.000003
   26  C  3  S    0.000801   0.000057   0.000321   0.000566  -0.004258
   27  C  3  X   -0.000558  -0.000042   0.000328   0.000584  -0.001669
   28  C  3  Y    0.000012  -0.000102  -0.000331   0.000196   0.000539
   29  C  3  Z   -0.000008   0.000002   0.000022  -0.000009  -0.000030
   30  C  3 XX   -0.000024  -0.000002  -0.000011  -0.000022   0.000031
   31  C  3 YY   -0.000008  -0.000001   0.000011   0.000019   0.000062
   32  C  3 ZZ   -0.000017  -0.000001  -0.000006  -0.000010   0.000020
   33  C  3 XY    0.000001  -0.000006  -0.000094   0.000055  -0.000010
   34  C  3 XZ   -0.000000  -0.000000  -0.000005   0.000004  -0.000003
   35  C  3 YZ   -0.000002  -0.000000  -0.000003  -0.000003  -0.000004
   36  C  4  S   -0.000000  -0.000000  -0.000002   0.000004   0.018535
   37  C  4  S   -0.000006  -0.000002  -0.000020   0.000022   0.000281
   38  C  4  X   -0.000010  -0.000005  -0.000048  -0.000011  -0.000329
   39  C  4  Y    0.000000  -0.000000   0.000010   0.000007  -0.000032
   40  C  4  Z   -0.000002  -0.000001  -0.000008  -0.000005   0.000003
   41  C  4  S    0.000148   0.000025   0.000391  -0.000136   0.008078
   42  C  4  X    0.000249   0.000102   0.000662   0.000062   0.003077
   43  C  4  Y    0.000032  -0.000050  -0.000633  -0.000271   0.002597
   44  C  4  Z    0.000006   0.000006   0.000050   0.000027  -0.000159
   45  C  4 XX    0.000004   0.000004   0.000047   0.000006  -0.000523
   46  C  4 YY    0.000007  -0.000003  -0.000043   0.000003  -0.000422
   47  C  4 ZZ    0.000000   0.000000   0.000004   0.000011  -0.000390
   48  C  4 XY    0.000009   0.000003   0.000033   0.000006   0.000014
   49  C  4 XZ   -0.000001  -0.000001  -0.000003  -0.000001   0.000002
   50  C  4 YZ   -0.000000   0.000000   0.000003   0.000000  -0.000002
   51  H  5  S    0.000014   0.000006   0.000053   0.000013   0.000062
   52  H  5  S    0.000025  -0.000029  -0.000483  -0.000165   0.000790
   53  H  5  X   -0.000006  -0.000001  -0.000026  -0.000011   0.000025
   54  H  5  Y   -0.000001  -0.000002  -0.000027  -0.000006   0.000054
   55  H  5  Z   -0.000000   0.000000   0.000004   0.000000  -0.000005
   56  C  6  S    0.000001   0.000001   0.000008   0.000004   0.897860
   57  C  6  S    0.000007   0.000004   0.000047   0.000022   0.044818
   58  C  6  X    0.000005   0.000002   0.000009  -0.000007  -0.000005
   59  C  6  Y   -0.000004  -0.000000  -0.000003  -0.000005  -0.000041
   60  C  6  Z    0.000001   0.000000   0.000003   0.000001  -0.000002
   61  C  6  S   -0.000236  -0.000063  -0.000531  -0.000227  -0.016507
   62  C  6  X    0.000107   0.000067   0.000549   0.000022   0.002455
   63  C  6  Y    0.000005   0.000028   0.000260  -0.000018  -0.003413
   64  C  6  Z   -0.000006  -0.000004  -0.000032  -0.000005   0.000105
   65  C  6 XX   -0.000004  -0.000002  -0.000024  -0.000001  -0.008333
   66  C  6 YY   -0.000001   0.000001   0.000008  -0.000002  -0.008277
   67  C  6 ZZ    0.000001   0.000001   0.000019   0.000010  -0.008626
   68  C  6 XY   -0.000001  -0.000000  -0.000005  -0.000003  -0.000045
   69  C  6 XZ    0.000001   0.000000   0.000002   0.000001  -0.000004
   70  C  6 YZ   -0.000000  -0.000000  -0.000000   0.000001  -0.000010
   71  H  7  S    0.000006   0.000002   0.000018   0.000009  -0.000546
   72  H  7  S    0.000003   0.000002   0.000031   0.000000   0.000778
   73  H  7  X   -0.000003  -0.000002  -0.000018   0.000000   0.000114
   74  H  7  Y   -0.000000  -0.000001  -0.000009   0.000000  -0.000197
   75  H  7  Z    0.000000   0.000000   0.000002   0.000000   0.000000
   76  C  8  S   -0.000001  -0.000000  -0.000001  -0.000001   0.261500
   77  C  8  S   -0.000007  -0.000000  -0.000004  -0.000007   0.012327
   78  C  8  X    0.000005   0.000000   0.000005   0.000008   0.000233
   79  C  8  Y    0.000000  -0.000001  -0.000009   0.000005   0.000144
   80  C  8  Z   -0.000000  -0.000000  -0.000000   0.000000  -0.000003
   81  C  8  S    0.000019   0.000002  -0.000052  -0.000102   0.005634
   82  C  8  X   -0.000078  -0.000006  -0.000081  -0.000133  -0.003841
   83  C  8  Y   -0.000004   0.000044   0.000309  -0.000186  -0.000889
   84  C  8  Z    0.000000  -0.000000  -0.000004   0.000004   0.000039
   85  C  8 XX   -0.000000  -0.000000   0.000001   0.000002  -0.002765
   86  C  8 YY   -0.000000  -0.000000  -0.000002  -0.000003  -0.002956
   87  C  8 ZZ   -0.000003  -0.000000  -0.000001  -0.000002  -0.002764
   88  C  8 XY    0.000000  -0.000000  -0.000002   0.000001  -0.000048
   89  C  8 XZ   -0.000000  -0.000000  -0.000000   0.000000   0.000003
   90  C  8 YZ   -0.000001  -0.000000  -0.000001  -0.000001   0.000007
   91  H  9  S    0.000007   0.000001   0.000011   0.000019  -0.000070
   92  H  9  S    0.000027   0.000002   0.000030   0.000050   0.001291
   93  H  9  X    0.000000   0.000000   0.000001   0.000001  -0.000020
   94  H  9  Y    0.000000  -0.000001  -0.000008   0.000005   0.000007
   95  H  9  Z   -0.000000  -0.000000  -0.000000   0.000000  -0.000001
   96  C 10  S    0.000001  -0.000001  -0.000000   0.000009   0.332437
   97  C 10  S    0.000008  -0.000003  -0.000003   0.000052   0.016559
   98  C 10  X    0.000005  -0.000001  -0.000011   0.000005  -0.000048
   99  C 10  Y    0.000004   0.000000   0.000002   0.000005   0.000098
  100  C 10  Z   -0.000001   0.000000   0.000001  -0.000002  -0.000005
  101  C 10  S   -0.000244   0.000028   0.000052  -0.000581  -0.007811
  102  C 10  X    0.000117  -0.000050  -0.000244   0.000500   0.001713
  103  C 10  Y   -0.000011   0.000028   0.000147  -0.000228   0.001999
  104  C 10  Z    0.000005  -0.000003  -0.000009   0.000024  -0.000062
  105  C 10 XX   -0.000005   0.000002   0.000011  -0.000022  -0.003122
  106  C 10 YY   -0.000000  -0.000001  -0.000006   0.000006  -0.003058
  107  C 10 ZZ    0.000001  -0.000001  -0.000000   0.000022  -0.003205
  108  C 10 XY    0.000001  -0.000000   0.000000   0.000005   0.000021
  109  C 10 XZ   -0.000001   0.000000  -0.000000  -0.000002  -0.000002
  110  C 10 YZ    0.000000   0.000000   0.000001   0.000001  -0.000009
  111  H 11  S    0.000006  -0.000001  -0.000001   0.000021  -0.000232
  112  H 11  S    0.000004  -0.000002  -0.000017   0.000030   0.000129
  113  H 11  X   -0.000003   0.000002   0.000009  -0.000016   0.000045
  114  H 11  Y    0.000001  -0.000001  -0.000004   0.000008   0.000048
  115  H 11  Z   -0.000000   0.000000   0.000000  -0.000001  -0.000005
  116  C 12  S   -0.000001  -0.000000   0.000024   0.000041  -0.000038
  117  C 12  S   -0.000093  -0.000007   0.000289   0.000490  -0.000090
  118  C 12  X    0.000084   0.000006  -0.000073  -0.000124  -0.000034
  119  C 12  Y   -0.000004   0.000047  -0.000144   0.000085   0.000008
  120  C 12  Z   -0.000001   0.000003  -0.000015   0.000009  -0.000003
  121  C 12  S   -0.000972  -0.000071  -0.000323  -0.000539  -0.000068
  122  C 12  X   -0.000609  -0.000044   0.000351   0.000609   0.000655
  123  C 12  Y   -0.000012   0.000151   0.000348  -0.000195  -0.000363
  124  C 12  Z   -0.000004   0.000011   0.000033  -0.000016   0.000005
  125  C 12 XX    0.000086   0.000006  -0.000089  -0.000148   0.000001
  126  C 12 YY   -0.000067  -0.000005  -0.000145  -0.000249  -0.000051
  127  C 12 ZZ   -0.000009  -0.000001  -0.000014  -0.000025  -0.000035
  128  C 12 XY    0.000002  -0.000033  -0.000240   0.000139  -0.000009
  129  C 12 XZ   -0.000002  -0.000003  -0.000016   0.000012   0.000003
  130  C 12 YZ   -0.000006  -0.000000  -0.000011  -0.000022  -0.000003
  131  N 13  S    0.003691   0.004923   0.960817   0.249821  -0.000004
  132  N 13  S    0.000273   0.000437   0.033454   0.008603  -0.000006
  133  N 13  X   -0.000094  -0.000169  -0.000502  -0.000131  -0.000018
  134  N 13  Y   -0.000005   0.000082   0.001457   0.000312   0.000007
  135  N 13  Z   -0.000001   0.000008   0.000115   0.000023  -0.000001
  136  N 13  S   -0.000181  -0.000250   0.003270   0.001293  -0.000062
  137  N 13  X    0.000497   0.000336   0.000473   0.000090   0.000106
  138  N 13  Y    0.000122  -0.000047  -0.000526   0.000096   0.000021
  139  N 13  Z    0.000010  -0.000006  -0.000030   0.000015   0.000002
  140  N 13 XX   -0.000220  -0.000162  -0.007680  -0.002027  -0.000033
  141  N 13 YY   -0.000022  -0.000021  -0.007677  -0.002063   0.000011
  142  N 13 ZZ   -0.000038   0.000049  -0.007825  -0.002125  -0.000017
  143  N 13 XY    0.000159   0.000133   0.000070   0.000005   0.000011
  144  N 13 XZ    0.000015   0.000013   0.000005  -0.000000   0.000003
  145  N 13 YZ    0.000000  -0.000008   0.000012   0.000006   0.000001
  146  N 14  S    0.649528   0.750874  -0.006060  -0.001151  -0.000010
  147  N 14  S    0.022718   0.025806   0.000018  -0.000027  -0.000042
  148  N 14  X    0.000936   0.001088   0.000192   0.000011   0.000002
  149  N 14  Y    0.000755   0.000566  -0.000065  -0.000081  -0.000004
  150  N 14  Z    0.000050   0.000033  -0.000006  -0.000006   0.000001
  151  N 14  S    0.001989   0.002949   0.000214  -0.000163   0.000276
  152  N 14  X   -0.000146  -0.000419  -0.000035   0.000022   0.000139
  153  N 14  Y   -0.000519   0.000038   0.000324  -0.000018   0.000009
  154  N 14  Z   -0.000042   0.000007   0.000017  -0.000008  -0.000008
  155  N 14 XX   -0.005032  -0.005994  -0.000162  -0.000034   0.000004
  156  N 14 YY   -0.005281  -0.005762   0.000144  -0.000041  -0.000018
  157  N 14 ZZ   -0.005176  -0.006102   0.000080  -0.000032  -0.000032
  158  N 14 XY   -0.000099  -0.000014   0.000058   0.000027  -0.000004
  159  N 14 XZ   -0.000010  -0.000003   0.000006   0.000001  -0.000002
  160  N 14 YZ   -0.000008   0.000031   0.000005  -0.000002   0.000001
  161  N 15  S    0.750883  -0.649517   0.001945  -0.005849  -0.000006
  162  N 15  S    0.026197  -0.022266  -0.000033   0.000000  -0.000022
  163  N 15  X    0.001080  -0.000940  -0.000084   0.000174  -0.000004
  164  N 15  Y   -0.000831   0.000453   0.000039   0.000096   0.000005
  165  N 15  Z   -0.000080   0.000048   0.000004   0.000004   0.000000
  166  N 15  S    0.002397  -0.002634  -0.000243   0.000135   0.000029
  167  N 15  X   -0.000200   0.000393   0.000038  -0.000008   0.000017
  168  N 15  Y    0.000509   0.000112   0.000171  -0.000277   0.000005
  169  N 15  Z    0.000046   0.000003   0.000016  -0.000014   0.000004
  170  N 15 XX   -0.005842   0.005207   0.000050  -0.000159  -0.000002
  171  N 15 YY   -0.006057   0.004941  -0.000106   0.000105  -0.000012
  172  N 15 ZZ   -0.006002   0.005294  -0.000067   0.000053  -0.000019
  173  N 15 XY    0.000100  -0.000001   0.000005  -0.000063   0.000000
  174  N 15 XZ    0.000006   0.000001  -0.000001  -0.000000   0.000000
  175  N 15 YZ   -0.000006  -0.000032  -0.000004   0.000005   0.000001
  176  N 16  S    0.004357  -0.004337  -0.249858   0.960807  -0.000013
  177  N 16  S    0.000333  -0.000393  -0.008782   0.033411  -0.000047
  178  N 16  X   -0.000117   0.000154   0.000133  -0.000509  -0.000004
  179  N 16  Y   -0.000006   0.000081   0.000437  -0.001423  -0.000004
  180  N 16  Z    0.000002   0.000004   0.000035  -0.000108   0.000002
  181  N 16  S   -0.000216   0.000223  -0.000477   0.003460   0.000501
  182  N 16  X    0.000543  -0.000263  -0.000157   0.000470   0.000071
  183  N 16  Y   -0.000115  -0.000064  -0.000336   0.000422  -0.000184
  184  N 16  Z   -0.000017  -0.000001  -0.000029   0.000015  -0.000033
  185  N 16 XX   -0.000243   0.000130   0.001973  -0.007696  -0.000034
  186  N 16 YY   -0.000024   0.000018   0.001938  -0.007710  -0.000008
  187  N 16 ZZ   -0.000030  -0.000054   0.001957  -0.007868  -0.000031
  188  N 16 XY   -0.000176   0.000109   0.000030  -0.000063  -0.000007
  189  N 16 XZ   -0.000011   0.000006   0.000003  -0.000008  -0.000002
  190  N 16 YZ    0.000002   0.000005  -0.000001   0.000015   0.000005

                      6          7          8          9         10
                  -10.0650   -10.0638   -10.0590   -10.0519   -10.0517
                     A          A          A          A          A   
    1  C  1  S    0.018893  -0.004905   0.034466  -0.032485   0.991484
    2  C  1  S    0.000413   0.000076   0.001235  -0.001514   0.049834
    3  C  1  X   -0.000325   0.000054   0.000171   0.000003   0.000168
    4  C  1  Y    0.000000  -0.000010   0.000298   0.000031  -0.000184
    5  C  1  Z   -0.000001  -0.000001  -0.000015  -0.000004   0.000019
    6  C  1  S    0.006720  -0.007133   0.006283  -0.004024  -0.020625
    7  C  1  X    0.002343  -0.002506  -0.000468  -0.001447  -0.002847
    8  C  1  Y   -0.001831   0.003315  -0.003044   0.002384   0.005149
    9  C  1  Z    0.000082  -0.000154   0.000140  -0.000106  -0.000252
   10  C  1 XX   -0.000540   0.000224  -0.000639   0.000354  -0.009049
   11  C  1 YY   -0.000420   0.000124  -0.000796   0.000387  -0.009151
   12  C  1 ZZ   -0.000347   0.000155  -0.000503   0.000354  -0.009471
   13  C  1 XY   -0.000014  -0.000019  -0.000094   0.000029  -0.000012
   14  C  1 XZ   -0.000002   0.000001   0.000003  -0.000000   0.000001
   15  C  1 YZ    0.000002   0.000005   0.000016  -0.000002  -0.000013
   16  H  2  S    0.000026  -0.000117  -0.000019  -0.000056  -0.000578
   17  H  2  S    0.000481  -0.000878   0.000406  -0.000721   0.000525
   18  H  2  X    0.000030   0.000021   0.000061  -0.000016  -0.000112
   19  H  2  Y   -0.000052   0.000015  -0.000061  -0.000022   0.000189
   20  H  2  Z    0.000002   0.000001   0.000002   0.000001  -0.000005
   21  C  3  S    0.000402  -0.001198   0.991533  -0.035098  -0.036067
   22  C  3  S    0.000056  -0.000299   0.049786  -0.002306  -0.002390
   23  C  3  X   -0.000024  -0.000065   0.000079  -0.000263  -0.000279
   24  C  3  Y    0.000018  -0.000001  -0.000000   0.000292  -0.000274
   25  C  3  Z   -0.000002  -0.000001  -0.000002  -0.000015   0.000009
   26  C  3  S   -0.001793   0.004975  -0.020421   0.008762   0.009301
   27  C  3  X   -0.000655   0.004235  -0.000642   0.005613   0.005979
   28  C  3  Y   -0.001274   0.000026   0.000022  -0.001821   0.001698
   29  C  3  Z    0.000051   0.000023   0.000007   0.000118  -0.000044
   30  C  3 XX    0.000012  -0.000037  -0.009162   0.000028   0.000017
   31  C  3 YY    0.000028   0.000021  -0.009040  -0.000084  -0.000104
   32  C  3 ZZ    0.000008  -0.000073  -0.009393   0.000150   0.000147
   33  C  3 XY    0.000021  -0.000000  -0.000002   0.000068  -0.000063
   34  C  3 XZ    0.000003   0.000001   0.000001  -0.000004   0.000003
   35  C  3 YZ   -0.000000  -0.000003  -0.000016   0.000016   0.000013
   36  C  4  S   -0.008141  -0.004482   0.035785   0.991472   0.031314
   37  C  4  S   -0.000313   0.000086   0.001300   0.049821   0.001692
   38  C  4  X    0.000124   0.000046   0.000171   0.000166   0.000015
   39  C  4  Y   -0.000033   0.000011  -0.000297   0.000185  -0.000020
   40  C  4  Z    0.000000  -0.000001   0.000017  -0.000015  -0.000001
   41  C  4  S   -0.001394  -0.006987   0.006293  -0.020347  -0.005344
   42  C  4  X   -0.000193  -0.002449  -0.000486  -0.002730  -0.001617
   43  C  4  Y   -0.000024  -0.003290   0.003052  -0.005009  -0.002710
   44  C  4  Z    0.000005   0.000186  -0.000169   0.000297   0.000155
   45  C  4 XX    0.000242   0.000211  -0.000650  -0.009053  -0.000229
   46  C  4 YY    0.000167   0.000114  -0.000809  -0.009153  -0.000202
   47  C  4 ZZ    0.000096   0.000148  -0.000515  -0.009470  -0.000255
   48  C  4 XY   -0.000004   0.000020   0.000094   0.000015  -0.000028
   49  C  4 XZ   -0.000002  -0.000002  -0.000006  -0.000006   0.000004
   50  C  4 YZ   -0.000002   0.000006   0.000015  -0.000021  -0.000002
   51  H  5  S    0.000025  -0.000117  -0.000020  -0.000574  -0.000093
   52  H  5  S    0.000109  -0.000873   0.000408   0.000564  -0.000683
   53  H  5  X   -0.000015   0.000022   0.000061  -0.000111  -0.000023
   54  H  5  Y   -0.000019  -0.000014   0.000060  -0.000191   0.000010
   55  H  5  Z    0.000001   0.000002  -0.000005   0.000013   0.000001
   56  C  6  S   -0.375111  -0.195997  -0.001631  -0.021166  -0.000459
   57  C  6  S   -0.018785  -0.010443  -0.000025  -0.001690  -0.000287
   58  C  6  X   -0.000064  -0.000138   0.000019   0.000331   0.000021
   59  C  6  Y   -0.000100  -0.000278   0.000014  -0.000037  -0.000027
   60  C  6  Z    0.000005   0.000011   0.000002  -0.000003   0.000001
   61  C  6  S    0.004778   0.013616  -0.002439   0.009641   0.004581
   62  C  6  X    0.000046  -0.001643   0.000581  -0.003531  -0.001353
   63  C  6  Y    0.000528   0.005588  -0.001673   0.003159   0.002277
   64  C  6  Z   -0.000014  -0.000182   0.000055  -0.000088  -0.000070
   65  C  6 XX    0.003427   0.001480   0.000094  -0.000313  -0.000012
   66  C  6 YY    0.003460   0.001386   0.000037  -0.000085  -0.000011
   67  C  6 ZZ    0.003585   0.001663   0.000047  -0.000012  -0.000091
   68  C  6 XY    0.000010  -0.000094  -0.000025  -0.000016   0.000013
   69  C  6 XZ    0.000003   0.000005  -0.000000   0.000006  -0.000000
   70  C  6 YZ    0.000004   0.000012  -0.000002   0.000006  -0.000002
   71  H  7  S    0.000189   0.000198  -0.000071   0.000092   0.000067
   72  H  7  S   -0.000521   0.000795  -0.000372   0.000885   0.000618
   73  H  7  X   -0.000045  -0.000071  -0.000013  -0.000031   0.000001
   74  H  7  Y    0.000117   0.000103  -0.000001   0.000078  -0.000005
   75  H  7  Z   -0.000003   0.000002  -0.000001   0.000002   0.000002
   76  C  8  S    0.131435   0.948713   0.000809   0.000507   0.000527
   77  C  8  S    0.006249   0.047782  -0.000142   0.000158   0.000167
   78  C  8  X    0.000101  -0.000120   0.000014   0.000015   0.000016
   79  C  8  Y   -0.000326   0.000006   0.000000   0.000037  -0.000035
   80  C  8  Z    0.000013   0.000008   0.000002  -0.000005   0.000002
   81  C  8  S    0.002097  -0.022266   0.002909  -0.004604  -0.004898
   82  C  8  X   -0.001578   0.006727  -0.001634   0.002634   0.002801
   83  C  8  Y    0.002006  -0.000028  -0.000003   0.000041  -0.000033
   84  C  8  Z   -0.000084  -0.000031   0.000005  -0.000000  -0.000012
   85  C  8 XX   -0.001364  -0.008521  -0.000012   0.000063   0.000068
   86  C  8 YY   -0.001448  -0.008548   0.000003   0.000053   0.000057
   87  C  8 ZZ   -0.001371  -0.008980  -0.000075   0.000040   0.000043
   88  C  8 XY    0.000111  -0.000002   0.000000   0.000045  -0.000043
   89  C  8 XZ   -0.000005   0.000003  -0.000001  -0.000003   0.000004
   90  C  8 YZ    0.000001  -0.000018  -0.000004  -0.000000   0.000000
   91  H  9  S   -0.000041  -0.000622   0.000033  -0.000070  -0.000074
   92  H  9  S    0.000573   0.000295   0.000395  -0.000506  -0.000536
   93  H  9  X   -0.000004   0.000299   0.000005  -0.000009  -0.000010
   94  H  9  Y   -0.000017   0.000001   0.000000  -0.000023   0.000022
   95  H  9  Z    0.000001   0.000005  -0.000001   0.000001   0.000001
   96  C 10  S    0.909501  -0.218118  -0.001611   0.000906  -0.021004
   97  C 10  S    0.045426  -0.011550  -0.000024  -0.000178  -0.001698
   98  C 10  X    0.000036  -0.000141   0.000018   0.000000   0.000332
   99  C 10  Y   -0.000030   0.000280  -0.000014   0.000025   0.000039
  100  C 10  Z   -0.000010  -0.000009   0.000003  -0.000005  -0.000001
  101  C 10  S   -0.015022   0.013965  -0.002444   0.003959   0.009912
  102  C 10  X    0.001734  -0.001660   0.000580  -0.001117  -0.003600
  103  C 10  Y    0.002719  -0.005651   0.001671  -0.002079  -0.003300
  104  C 10  Z   -0.000068   0.000204  -0.000070   0.000078   0.000120
  105  C 10 XX   -0.008416   0.001684   0.000095   0.000007  -0.000315
  106  C 10 YY   -0.008398   0.001591   0.000038  -0.000006  -0.000088
  107  C 10 ZZ   -0.008732   0.001875   0.000047  -0.000090  -0.000019
  108  C 10 XY    0.000042   0.000094   0.000025  -0.000013   0.000015
  109  C 10 XZ   -0.000003  -0.000000  -0.000000   0.000001  -0.000002
  110  C 10 YZ   -0.000020   0.000014  -0.000001  -0.000003   0.000006
  111  H 11  S   -0.000525   0.000211  -0.000071   0.000061   0.000096
  112  H 11  S    0.000947   0.000771  -0.000371   0.000561   0.000920
  113  H 11  X    0.000111  -0.000074  -0.000013   0.000003  -0.000031
  114  H 11  Y    0.000221  -0.000108   0.000001   0.000010  -0.000077
  115  H 11  Z   -0.000014   0.000008  -0.000001   0.000001   0.000005
  116  C 12  S   -0.000016   0.000020   0.010113  -0.000790  -0.000844
  117  C 12  S   -0.000040  -0.000014   0.000125  -0.000163  -0.000176
  118  C 12  X   -0.000015   0.000031  -0.000378   0.000028   0.000030
  119  C 12  Y   -0.000019   0.000000   0.000000   0.000028  -0.000026
  120  C 12  Z    0.000001   0.000001  -0.000004   0.000002   0.000004
  121  C 12  S   -0.000003   0.001680   0.005589   0.001515   0.001626
  122  C 12  X    0.000312   0.000688   0.002704   0.001249   0.001343
  123  C 12  Y    0.000869  -0.000021  -0.000048  -0.000251   0.000236
  124  C 12  Z    0.000012   0.000008   0.000026  -0.000017   0.000028
  125  C 12 XX    0.000002   0.000035  -0.000614   0.000128   0.000136
  126  C 12 YY   -0.000022   0.000038  -0.000339   0.000039   0.000042
  127  C 12 ZZ   -0.000015   0.000008  -0.000287  -0.000012  -0.000014
  128  C 12 XY    0.000020  -0.000000   0.000000   0.000002  -0.000001
  129  C 12 XZ   -0.000006   0.000001  -0.000003   0.000002   0.000004
  130  C 12 YZ    0.000000   0.000003   0.000009  -0.000006  -0.000006
  131  N 13  S   -0.000014   0.000003   0.000021  -0.000002  -0.000019
  132  N 13  S   -0.000062   0.000009   0.000029  -0.000006  -0.000066
  133  N 13  X    0.000011   0.000006  -0.000001  -0.000005  -0.000020
  134  N 13  Y   -0.000001  -0.000005   0.000021  -0.000014  -0.000006
  135  N 13  Z   -0.000000   0.000001   0.000015   0.000004  -0.000005
  136  N 13  S    0.000783  -0.000073  -0.000659   0.000075   0.000491
  137  N 13  X    0.000003  -0.000132  -0.000335  -0.000195   0.000266
  138  N 13  Y    0.000245  -0.000028  -0.000155   0.000106   0.000166
  139  N 13  Z    0.000028  -0.000009  -0.000058  -0.000013   0.000025
  140  N 13 XX   -0.000017   0.000010   0.000071  -0.000021  -0.000039
  141  N 13 YY   -0.000022  -0.000001   0.000110  -0.000006  -0.000045
  142  N 13 ZZ   -0.000029   0.000010   0.000028  -0.000011  -0.000045
  143  N 13 XY   -0.000000  -0.000016  -0.000001  -0.000012   0.000015
  144  N 13 XZ   -0.000000  -0.000002   0.000001  -0.000003   0.000002
  145  N 13 YZ    0.000003  -0.000002   0.000005  -0.000001  -0.000001
  146  N 14  S    0.000001   0.000000  -0.000010  -0.000005  -0.000008
  147  N 14  S    0.000010   0.000000  -0.000040  -0.000017  -0.000033
  148  N 14  X   -0.000009  -0.000002   0.000003  -0.000002   0.000001
  149  N 14  Y   -0.000002  -0.000000  -0.000007  -0.000000   0.000001
  150  N 14  Z   -0.000001  -0.000000  -0.000003  -0.000001   0.000001
  151  N 14  S   -0.000227  -0.000035   0.000204   0.000013   0.000204
  152  N 14  X   -0.000109  -0.000010   0.000122  -0.000021   0.000126
  153  N 14  Y   -0.000017   0.000038   0.000101   0.000069  -0.000044
  154  N 14  Z    0.000002   0.000007   0.000030   0.000014  -0.000011
  155  N 14 XX   -0.000006  -0.000003  -0.000010  -0.000007   0.000006
  156  N 14 YY   -0.000000  -0.000000  -0.000023  -0.000007  -0.000016
  157  N 14 ZZ    0.000003   0.000002  -0.000022  -0.000013  -0.000022
  158  N 14 XY    0.000004   0.000009   0.000025   0.000005  -0.000001
  159  N 14 XZ    0.000001   0.000001   0.000006   0.000003  -0.000003
  160  N 14 YZ    0.000000  -0.000000   0.000000  -0.000000   0.000001
  161  N 15  S   -0.000009   0.000000  -0.000009  -0.000007  -0.000005
  162  N 15  S   -0.000039   0.000001  -0.000038  -0.000031  -0.000018
  163  N 15  X    0.000007  -0.000002   0.000002   0.000001  -0.000003
  164  N 15  Y    0.000002   0.000000   0.000006  -0.000001   0.000000
  165  N 15  Z   -0.000001   0.000001   0.000005  -0.000001   0.000002
  166  N 15  S    0.000365  -0.000051   0.000172   0.000200   0.000011
  167  N 15  X    0.000180  -0.000018   0.000112   0.000127  -0.000020
  168  N 15  Y   -0.000020  -0.000037  -0.000086   0.000050  -0.000066
  169  N 15  Z   -0.000002  -0.000007  -0.000038   0.000005  -0.000013
  170  N 15 XX    0.000007  -0.000004  -0.000010   0.000006  -0.000007
  171  N 15 YY   -0.000014   0.000000  -0.000023  -0.000016  -0.000007
  172  N 15 ZZ   -0.000027   0.000003  -0.000020  -0.000021  -0.000013
  173  N 15 XY    0.000006  -0.000009  -0.000025   0.000002  -0.000005
  174  N 15 XZ    0.000000  -0.000001  -0.000007   0.000001  -0.000003
  175  N 15 YZ    0.000001   0.000000   0.000002   0.000001   0.000000
  176  N 16  S    0.000007   0.000003   0.000019  -0.000019  -0.000004
  177  N 16  S    0.000037   0.000007   0.000020  -0.000065  -0.000012
  178  N 16  X   -0.000020   0.000007  -0.000002  -0.000019  -0.000006
  179  N 16  Y   -0.000006   0.000005  -0.000020   0.000004   0.000015
  180  N 16  Z   -0.000001  -0.000001  -0.000017   0.000005  -0.000003
  181  N 16  S   -0.000580  -0.000039  -0.000576   0.000484   0.000116
  182  N 16  X    0.000076  -0.000134  -0.000313   0.000280  -0.000187
  183  N 16  Y    0.000150   0.000019   0.000130  -0.000159  -0.000121
  184  N 16  Z    0.000020   0.000009   0.000053  -0.000028   0.000010
  185  N 16 XX   -0.000013   0.000010   0.000069  -0.000037  -0.000022
  186  N 16 YY    0.000023  -0.000002   0.000105  -0.000044  -0.000008
  187  N 16 ZZ    0.000007   0.000008   0.000023  -0.000044  -0.000015
  188  N 16 XY   -0.000008   0.000016  -0.000001  -0.000016   0.000012
  189  N 16 XZ   -0.000001   0.000003   0.000001  -0.000001   0.000003
  190  N 16 YZ   -0.000001  -0.000001   0.000010  -0.000000  -0.000001

                     11         12         13         14         15
                  -10.0426    -0.8816    -0.7231    -0.6948    -0.6535
                     A          A          A          A          A   
    1  C  1  S    0.000452  -0.003248  -0.090756   0.007068  -0.015311
    2  C  1  S   -0.000040   0.006710   0.172835  -0.014274   0.029916
    3  C  1  X    0.000102  -0.003719   0.026240   0.002559  -0.065477
    4  C  1  Y   -0.000021  -0.002665  -0.052964   0.000504  -0.026353
    5  C  1  Z    0.000014   0.000174   0.002553  -0.000318   0.001094
    6  C  1  S   -0.001592   0.007415   0.105748   0.032059   0.029910
    7  C  1  X   -0.001171   0.009170   0.004616   0.002621  -0.001091
    8  C  1  Y    0.000570  -0.001077  -0.005243  -0.016287  -0.005925
    9  C  1  Z   -0.000067  -0.000141   0.000184   0.001721   0.000206
   10  C  1 XX   -0.000010   0.000623   0.002810   0.000105  -0.002965
   11  C  1 YY    0.000114   0.000038   0.000711   0.000129   0.003515
   12  C  1 ZZ   -0.000051  -0.000150  -0.010163   0.000768  -0.001442
   13  C  1 XY    0.000004   0.000388   0.001866   0.000103   0.004581
   14  C  1 XZ   -0.000000  -0.000026  -0.000024   0.000018  -0.000224
   15  C  1 YZ   -0.000009  -0.000004  -0.000549  -0.000034  -0.000246
   16  H  2  S   -0.000093   0.002360   0.035194  -0.005631   0.014926
   17  H  2  S   -0.000330   0.003262   0.005392  -0.000724   0.006528
   18  H  2  X    0.000023  -0.000295   0.002210   0.000228  -0.000366
   19  H  2  Y    0.000039  -0.000426  -0.003601   0.000549  -0.001635
   20  H  2  Z   -0.000000   0.000035   0.000142  -0.000077   0.000071
   21  C  3  S   -0.010520  -0.011664  -0.098598  -0.000015  -0.085416
   22  C  3  S   -0.000936   0.023283   0.190692   0.000024   0.167983
   23  C  3  X    0.000373  -0.013768   0.044278   0.000154  -0.061539
   24  C  3  Y    0.000000   0.000045   0.000192  -0.018331   0.000279
   25  C  3  Z    0.000003  -0.000081   0.000138  -0.000488  -0.000401
   26  C  3  S    0.007466  -0.015703   0.109120  -0.000247   0.119132
   27  C  3  X   -0.002786   0.012060   0.017598   0.000249  -0.026286
   28  C  3  Y   -0.000014  -0.000223   0.000015  -0.063160   0.000045
   29  C  3  Z   -0.000022   0.000555   0.000124  -0.000798  -0.000142
   30  C  3 XX   -0.000465   0.002058   0.002222  -0.000012   0.004357
   31  C  3 YY   -0.000190  -0.000425   0.002623  -0.000007  -0.002004
   32  C  3 ZZ   -0.000117  -0.001218  -0.010864   0.000001  -0.008669
   33  C  3 XY    0.000000  -0.000002  -0.000007   0.002288  -0.000003
   34  C  3 XZ   -0.000006  -0.000016   0.000091   0.000432   0.000142
   35  C  3 YZ    0.000000  -0.000076  -0.000710   0.000027  -0.000341
   36  C  4  S    0.000439  -0.003222  -0.090647  -0.007219  -0.015041
   37  C  4  S   -0.000036   0.006673   0.172653   0.014584   0.029385
   38  C  4  X    0.000101  -0.003669   0.026135  -0.002321  -0.065384
   39  C  4  Y    0.000020   0.002652   0.052995   0.000592   0.026166
   40  C  4  Z   -0.000011  -0.000212  -0.003112  -0.000298  -0.001188
   41  C  4  S   -0.001611   0.006955   0.105649  -0.031820   0.029563
   42  C  4  X   -0.001134   0.008949   0.004636  -0.002311  -0.001182
   43  C  4  Y   -0.000576   0.000895   0.005255  -0.016277   0.005990
   44  C  4  Z    0.000067  -0.000097  -0.000255   0.001686  -0.000241
   45  C  4 XX   -0.000012   0.000609   0.002804  -0.000104  -0.002963
   46  C  4 YY    0.000114   0.000038   0.000702  -0.000130   0.003504
   47  C  4 ZZ   -0.000049  -0.000146  -0.010144  -0.000781  -0.001411
   48  C  4 XY   -0.000004  -0.000382  -0.001855   0.000104  -0.004591
   49  C  4 XZ    0.000003   0.000030  -0.000026   0.000028   0.000292
   50  C  4 YZ   -0.000009  -0.000030  -0.000662   0.000030  -0.000304
   51  H  5  S   -0.000091   0.002317   0.035131   0.005624   0.014681
   52  H  5  S   -0.000319   0.003149   0.005403   0.000748   0.006481
   53  H  5  X    0.000022  -0.000293   0.002193  -0.000221  -0.000380
   54  H  5  Y   -0.000039   0.000420   0.003599   0.000554   0.001614
   55  H  5  Z    0.000002  -0.000038  -0.000209  -0.000082  -0.000105
   56  C  6  S   -0.000019  -0.000607  -0.091144  -0.003191   0.058262
   57  C  6  S   -0.000192   0.002434   0.174239   0.004868  -0.112395
   58  C  6  X   -0.000000  -0.000824  -0.027793  -0.003263  -0.027604
   59  C  6  Y   -0.000015   0.000435   0.051101  -0.000498  -0.040298
   60  C  6  Z    0.000001   0.000003  -0.001723  -0.000012   0.001673
   61  C  6  S    0.002282  -0.011170   0.108396   0.016235  -0.090001
   62  C  6  X   -0.001033   0.006463  -0.002321  -0.006648   0.000006
   63  C  6  Y    0.000976  -0.003352   0.006644   0.006557  -0.006823
   64  C  6  Z   -0.000034  -0.000023  -0.000244  -0.000353   0.000140
   65  C  6 XX    0.000027  -0.000133   0.002044   0.000741   0.002583
   66  C  6 YY   -0.000005   0.000019   0.000784  -0.000267  -0.002835
   67  C  6 ZZ   -0.000071   0.000168  -0.010259  -0.000528   0.006205
   68  C  6 XY   -0.000010  -0.000007   0.001504  -0.000089  -0.003521
   69  C  6 XZ    0.000002   0.000009  -0.000182   0.000017   0.000195
   70  C  6 YZ   -0.000003   0.000007  -0.000469  -0.000003   0.000385
   71  H  7  S    0.000019   0.000219   0.036703   0.001726  -0.030947
   72  H  7  S    0.000394  -0.001973   0.007538   0.002790  -0.009598
   73  H  7  X    0.000013  -0.000081  -0.002105  -0.000001   0.001146
   74  H  7  Y    0.000007  -0.000030   0.003720   0.000145  -0.003084
   75  H  7  Z    0.000001   0.000003  -0.000083   0.000004   0.000073
   76  C  8  S   -0.000010  -0.000490  -0.091676  -0.000189   0.086328
   77  C  8  S    0.000050   0.000829   0.174787   0.000362  -0.167738
   78  C  8  X    0.000017  -0.000571  -0.058763  -0.000101   0.029819
   79  C  8  Y   -0.000000   0.000006  -0.000040  -0.001570   0.000090
   80  C  8  Z   -0.000000   0.000006   0.000324   0.000021  -0.000292
   81  C  8  S   -0.001438   0.004558   0.109517   0.000295  -0.114154
   82  C  8  X    0.001026  -0.004600  -0.007228  -0.000046  -0.002798
   83  C  8  Y    0.000005  -0.000030  -0.000007   0.000919  -0.000004
   84  C  8  Z   -0.000007   0.000008   0.000047   0.000187  -0.000036
   85  C  8 XX   -0.000012   0.000130   0.000153   0.000000   0.001889
   86  C  8 YY   -0.000002   0.000034   0.002929   0.000006  -0.002049
   87  C  8 ZZ   -0.000001  -0.000022  -0.010320  -0.000020   0.008938
   88  C  8 XY   -0.000000  -0.000001  -0.000008   0.000063  -0.000000
   89  C  8 XZ    0.000001  -0.000002  -0.000034  -0.000008   0.000013
   90  C  8 YZ   -0.000001  -0.000009  -0.000590   0.000003   0.000480
   91  H  9  S   -0.000043   0.000344   0.037101   0.000086  -0.046705
   92  H  9  S   -0.000218   0.001143   0.007945   0.000021  -0.012016
   93  H  9  X   -0.000012   0.000025  -0.004279  -0.000008   0.004865
   94  H  9  Y   -0.000000   0.000000  -0.000006  -0.000075   0.000008
   95  H  9  Z    0.000001  -0.000001  -0.000010  -0.000006   0.000012
   96  C 10  S   -0.000019  -0.000607  -0.091193   0.002870   0.058115
   97  C 10  S   -0.000192   0.002459   0.174316  -0.004220  -0.112095
   98  C 10  X   -0.000001  -0.000818  -0.027734   0.003248  -0.027777
   99  C 10  Y    0.000015  -0.000441  -0.051190  -0.000689   0.040265
  100  C 10  Z   -0.000005   0.000014   0.001511   0.000016  -0.001262
  101  C 10  S    0.002296  -0.011429   0.108450  -0.016103  -0.089848
  102  C 10  X   -0.001043   0.006641  -0.002311   0.006759   0.000015
  103  C 10  Y   -0.000974   0.003440  -0.006642   0.006621   0.006796
  104  C 10  Z    0.000057  -0.000036   0.000196  -0.000521  -0.000129
  105  C 10 XX    0.000026  -0.000141   0.002051  -0.000740   0.002578
  106  C 10 YY   -0.000005   0.000022   0.000773   0.000275  -0.002829
  107  C 10 ZZ   -0.000071   0.000173  -0.010264   0.000499   0.006190
  108  C 10 XY    0.000010   0.000004  -0.001502  -0.000102   0.003541
  109  C 10 XZ   -0.000002  -0.000012   0.000088   0.000029  -0.000132
  110  C 10 YZ   -0.000003   0.000007  -0.000472   0.000005   0.000387
  111  H 11  S    0.000019   0.000219   0.036718  -0.001583  -0.030839
  112  H 11  S    0.000396  -0.002018   0.007532  -0.002787  -0.009552
  113  H 11  X    0.000014  -0.000084  -0.002094  -0.000008   0.001130
  114  H 11  Y   -0.000007   0.000031  -0.003726   0.000131   0.003078
  115  H 11  Z   -0.000001  -0.000006   0.000161   0.000001  -0.000136
  116  C 12  S    0.992650  -0.073209  -0.036073  -0.000068  -0.118475
  117  C 12  S    0.049254   0.141479   0.069881   0.000115   0.236573
  118  C 12  X    0.000138  -0.079723   0.036992  -0.000409   0.016789
  119  C 12  Y    0.000000   0.000112   0.000209  -0.154552   0.000011
  120  C 12  Z    0.000018   0.000900   0.000428  -0.011738   0.001074
  121  C 12  S   -0.010676  -0.001946   0.043416   0.000106   0.101801
  122  C 12  X   -0.005355   0.064133   0.016609   0.000547   0.012015
  123  C 12  Y   -0.000017   0.000321   0.000047   0.079298   0.000181
  124  C 12  Z   -0.000065  -0.000256   0.000149   0.004800  -0.000020
  125  C 12 XX   -0.009085   0.005823   0.003714   0.000066   0.000235
  126  C 12 YY   -0.009120   0.002715  -0.001223  -0.000050   0.001642
  127  C 12 ZZ   -0.009772  -0.009841  -0.004353  -0.000038  -0.013598
  128  C 12 XY    0.000003  -0.000004  -0.000020   0.019859   0.000039
  129  C 12 XZ   -0.000004  -0.000130   0.000089   0.001491   0.000081
  130  C 12 YZ    0.000060   0.001093   0.000222  -0.000194   0.001262
  131  N 13  S   -0.000115  -0.091004  -0.005424  -0.131140  -0.046593
  132  N 13  S    0.000156   0.182237   0.010505   0.271878   0.095328
  133  N 13  X   -0.000140  -0.049998   0.025279  -0.069931   0.085896
  134  N 13  Y   -0.000198   0.087840   0.006022   0.071700   0.049061
  135  N 13  Z   -0.000013   0.007510   0.000384   0.006580   0.003213
  136  N 13  S   -0.001100   0.177050   0.017939   0.299673   0.122635
  137  N 13  X    0.000753  -0.007963   0.003550   0.009983   0.019471
  138  N 13  Y   -0.001176   0.046900   0.004745   0.044444   0.027266
  139  N 13  Z   -0.000085   0.003907   0.000439   0.003875   0.002324
  140  N 13 XX   -0.000083   0.003207  -0.001259   0.005080  -0.006516
  141  N 13 YY   -0.000411   0.003912   0.000611  -0.006606   0.003366
  142  N 13 ZZ    0.000211  -0.011730  -0.000475  -0.013022  -0.004180
  143  N 13 XY   -0.000083  -0.005958   0.003169  -0.004279   0.011959
  144  N 13 XZ   -0.000003  -0.000644   0.000281  -0.000520   0.001020
  145  N 13 YZ   -0.000050   0.001490   0.000073   0.000675   0.000589
  146  N 14  S    0.000006  -0.107211   0.019519  -0.080516   0.073312
  147  N 14  S    0.000017   0.224861  -0.042390   0.172690  -0.159467
  148  N 14  X    0.000118   0.092001  -0.005583   0.114910   0.010052
  149  N 14  Y   -0.000017   0.071169  -0.018497  -0.066881  -0.087296
  150  N 14  Z   -0.000006   0.004553  -0.001351  -0.006490  -0.006877
  151  N 14  S    0.000580   0.145848  -0.036797   0.162525  -0.152788
  152  N 14  X    0.000302   0.025569  -0.004101   0.035550  -0.009347
  153  N 14  Y   -0.000092   0.020825  -0.004198  -0.007675  -0.022977
  154  N 14  Z   -0.000003   0.001285  -0.000323  -0.000975  -0.001816
  155  N 14 XX    0.000101   0.006862   0.001374   0.016047   0.010605
  156  N 14 YY   -0.000015   0.006791  -0.002144  -0.014664  -0.009716
  157  N 14 ZZ    0.000034  -0.012721   0.001713  -0.007876   0.006053
  158  N 14 XY   -0.000035   0.003414  -0.000209  -0.009140  -0.000727
  159  N 14 XZ   -0.000003  -0.000003  -0.000007  -0.001031  -0.000107
  160  N 14 YZ   -0.000002   0.001728  -0.000350  -0.000502  -0.001425
  161  N 15  S    0.000007  -0.107287   0.019370   0.080468   0.073471
  162  N 15  S    0.000019   0.225002  -0.042085  -0.172630  -0.159837
  163  N 15  X    0.000118   0.091853  -0.005291  -0.115171   0.010173
  164  N 15  Y    0.000017  -0.071299   0.018624  -0.066749   0.087129
  165  N 15  Z   -0.000001  -0.006659   0.001529  -0.003821   0.006730
  166  N 15  S    0.000560   0.146151  -0.036414  -0.162385  -0.152961
  167  N 15  X    0.000294   0.025595  -0.003972  -0.035526  -0.009225
[...]
   16             0.001598   0.320030   0.042015   0.076509   0.008943

                     31         32         33         34         35

                  2.000000   2.000000   2.000000   2.000000   2.000000

    1             0.047623   0.082169   0.463603   0.001879   0.010675
    2             0.008962   0.000325   0.001381   0.000009   0.004143
    3             0.212384   0.531600   0.005539   0.000068  -0.014732
    4             0.047306   0.084105   0.462792   0.002315   0.010564
    5             0.009419   0.000271   0.001607   0.000071   0.004023
    6             0.037327   0.143358   0.521071   0.006677   0.000480
    7             0.014381   0.000475   0.001828   0.000031   0.000073
    8             0.005844   0.480384   0.006369   0.000094   0.000583
    9             0.012009   0.001515   0.000068   0.000003   0.000008
   10             0.036959   0.146125   0.517895   0.006889   0.000464
   11             0.014849   0.000423   0.001649   0.000032   0.000074
   12             0.120042   0.200947   0.000281   0.013984   0.127486
   13             0.397067   0.002831   0.006320   0.718342   0.829094
   14             0.319289   0.161041   0.001616   0.265320   0.105433
   15             0.319738   0.161730   0.001506   0.264929   0.111280
   16             0.396803   0.002701   0.006474   0.719356   0.810352

                     36         37         38

                  2.000000   2.000000   2.000000

    1             0.007360   0.004669   0.154154
    2            -0.000028   0.002907   0.000505
    3             0.004778   0.004685   0.068860
    4             0.007367   0.004379   0.154136
    5            -0.000002   0.002715   0.000459
    6             0.001029   0.001357   0.008281
    7             0.000726   0.000097   0.000046
    8             0.000248   0.000368   0.208929
    9             0.000001   0.000568   0.000825
   10             0.000902   0.001511   0.008198
   11             0.000697   0.000116   0.000036
   12             0.137793   0.120455   0.483773
   13             0.179781   0.368826   0.137954
   14             0.710636   0.582730   0.317968
   15             0.759285   0.527962   0.317432
   16             0.189427   0.376656   0.138442

               ----- POPULATIONS IN EACH AO -----
                             MULLIKEN      LOWDIN
              1  C  1  S      1.99192     1.97764
              2  C  1  S      0.71022     0.36026
              3  C  1  X      0.75928     0.65665
              4  C  1  Y      0.74889     0.64635
              5  C  1  Z      0.56693     0.51667
              6  C  1  S      0.52269     0.29695
              7  C  1  X      0.14580     0.32852
              8  C  1  Y      0.25927     0.38065
              9  C  1  Z      0.42957     0.46906
             10  C  1 XX      0.00034     0.17304
             11  C  1 YY     -0.00115     0.16444
             12  C  1 ZZ     -0.02415     0.10440
             13  C  1 XY      0.01301     0.02850
             14  C  1 XZ      0.00514     0.01096
             15  C  1 YZ      0.00281     0.00516
             16  H  2  S      0.53242     0.48573
             17  H  2  S      0.36421     0.36406
             18  H  2  X      0.00410     0.01112
             19  H  2  Y      0.00622     0.01552
             20  H  2  Z      0.00262     0.00778
             21  C  3  S      1.99197     1.97635
             22  C  3  S      0.71589     0.35928
             23  C  3  X      0.76082     0.66051
             24  C  3  Y      0.76757     0.66271
             25  C  3  Z      0.54654     0.48676
             26  C  3  S      0.49761     0.27440
             27  C  3  X      0.15616     0.31508
             28  C  3  Y      0.04761     0.31527
             29  C  3  Z      0.38551     0.43678
             30  C  3 XX      0.00455     0.17035
             31  C  3 YY      0.00024     0.16794
             32  C  3 ZZ     -0.02388     0.10386
             33  C  3 XY      0.01269     0.02857
             34  C  3 XZ      0.00755     0.01511
             35  C  3 YZ      0.00536     0.01147
             36  C  4  S      1.99192     1.97764
             37  C  4  S      0.71010     0.36030
             38  C  4  X      0.75871     0.65631
             39  C  4  Y      0.74870     0.64604
             40  C  4  Z      0.56663     0.51654
             41  C  4  S      0.52427     0.29729
             42  C  4  X      0.14666     0.32862
             43  C  4  Y      0.25808     0.38094
             44  C  4  Z      0.43022     0.46933
             45  C  4 XX      0.00034     0.17296
             46  C  4 YY     -0.00106     0.16456
             47  C  4 ZZ     -0.02418     0.10439
             48  C  4 XY      0.01297     0.02837
             49  C  4 XZ      0.00513     0.01093
             50  C  4 YZ      0.00280     0.00512
             51  H  5  S      0.53244     0.48580
             52  H  5  S      0.36475     0.36437
             53  H  5  X      0.00405     0.01099
             54  H  5  Y      0.00624     0.01556
             55  H  5  Z      0.00262     0.00778
             56  C  6  S      1.99192     1.97781
             57  C  6  S      0.70969     0.35852
             58  C  6  X      0.76009     0.66069
             59  C  6  Y      0.73632     0.62998
             60  C  6  Z      0.57190     0.51947
             61  C  6  S      0.51347     0.29854
             62  C  6  X      0.18986     0.34278
             63  C  6  Y      0.17904     0.37451
             64  C  6  Z      0.44559     0.47957
             65  C  6 XX     -0.00033     0.17125
             66  C  6 YY     -0.00094     0.16434
             67  C  6 ZZ     -0.02457     0.10321
             68  C  6 XY      0.01313     0.03020
             69  C  6 XZ      0.00585     0.01267
             70  C  6 YZ      0.00322     0.00655
             71  H  7  S      0.53920     0.49345
             72  H  7  S      0.40538     0.38285
             73  H  7  X      0.00337     0.00861
             74  H  7  Y      0.00644     0.01482
             75  H  7  Z      0.00285     0.00798
             76  C  8  S      1.99189     1.97777
             77  C  8  S      0.70682     0.35692
             78  C  8  X      0.72744     0.61946
             79  C  8  Y      0.75804     0.66261
             80  C  8  Z      0.58878     0.53848
             81  C  8  S      0.50441     0.29933
             82  C  8  X      0.18620     0.39278
             83  C  8  Y      0.17831     0.32579
             84  C  8  Z      0.46034     0.49338
             85  C  8 XX      0.00097     0.16742
             86  C  8 YY      0.00019     0.17390
             87  C  8 ZZ     -0.02438     0.10278
             88  C  8 XY      0.01078     0.02095
             89  C  8 XZ      0.00198     0.00346
             90  C  8 YZ      0.00632     0.01415
             91  H  9  S      0.53972     0.49529
             92  H  9  S      0.41146     0.38545
             93  H  9  X      0.00784     0.01775
             94  H  9  Y      0.00194     0.00604
             95  H  9  Z      0.00306     0.00869
             96  C 10  S      1.99192     1.97781
             97  C 10  S      0.70972     0.35847
             98  C 10  X      0.76068     0.66107
             99  C 10  Y      0.73668     0.63003
            100  C 10  Z      0.57184     0.51955
            101  C 10  S      0.51305     0.29832
            102  C 10  X      0.18954     0.34239
            103  C 10  Y      0.17738     0.37452
            104  C 10  Z      0.44679     0.47959
            105  C 10 XX     -0.00030     0.17143
            106  C 10 YY     -0.00089     0.16444
            107  C 10 ZZ     -0.02462     0.10303
            108  C 10 XY      0.01316     0.03028
            109  C 10 XZ      0.00586     0.01271
            110  C 10 YZ      0.00316     0.00639
            111  H 11  S      0.53959     0.49373
            112  H 11  S      0.40507     0.38245
            113  H 11  X      0.00337     0.00861
            114  H 11  Y      0.00648     0.01493
            115  H 11  Z      0.00283     0.00798
            116  C 12  S      1.99161     1.97365
            117  C 12  S      0.71949     0.36135
            118  C 12  X      0.74343     0.64510
            119  C 12  Y      0.71380     0.62987
            120  C 12  Z      0.63472     0.57782
            121  C 12  S      0.31340     0.26475
            122  C 12  X     -0.00299     0.27696
            123  C 12  Y      0.06530     0.30742
            124  C 12  Z      0.42311     0.45895
            125  C 12 XX      0.01262     0.18987
            126  C 12 YY      0.00617     0.17304
            127  C 12 ZZ     -0.02549     0.10284
            128  C 12 XY      0.02235     0.05467
            129  C 12 XZ      0.00729     0.01337
            130  C 12 YZ      0.01233     0.02622
            131  N 13  S      1.99233     1.97621
            132  N 13  S      0.81426     0.54765
            133  N 13  X      0.73366     0.66549
            134  N 13  Y      0.94717     0.88738
            135  N 13  Z      0.70744     0.65946
            136  N 13  S      0.99507     0.42164
            137  N 13  X      0.20733     0.36361
            138  N 13  Y      0.53715     0.57296
            139  N 13  Z      0.50450     0.53740
            140  N 13 XX      0.00154     0.19435
            141  N 13 YY     -0.01524     0.17566
            142  N 13 ZZ     -0.01977     0.16157
            143  N 13 XY      0.01821     0.03815
            144  N 13 XZ      0.00911     0.02090
            145  N 13 YZ      0.00747     0.00931
            146  N 14  S      1.99246     1.97618
            147  N 14  S      0.84265     0.56152
            148  N 14  X      0.85782     0.79864
            149  N 14  Y      0.78928     0.72643
            150  N 14  Z      0.69696     0.64766
            151  N 14  S      0.89455     0.42930
            152  N 14  X      0.35951     0.48457
            153  N 14  Y      0.24881     0.40782
            154  N 14  Z      0.47536     0.51093
            155  N 14 XX     -0.00166     0.19204
            156  N 14 YY      0.00462     0.19831
            157  N 14 ZZ     -0.01762     0.16626
            158  N 14 XY      0.01649     0.03820
            159  N 14 XZ      0.00964     0.01587
            160  N 14 YZ      0.01089     0.02170
            161  N 15  S      1.99246     1.97618
            162  N 15  S      0.84274     0.56160
            163  N 15  X      0.85676     0.79749
            164  N 15  Y      0.79095     0.72819
            165  N 15  Z      0.69615     0.64680
            166  N 15  S      0.89459     0.42941
            167  N 15  X      0.35821     0.48363
            168  N 15  Y      0.25080     0.40937
            169  N 15  Z      0.47438     0.51023
            170  N 15 XX     -0.00155     0.19217
            171  N 15 YY      0.00452     0.19824
            172  N 15 ZZ     -0.01756     0.16638
            173  N 15 XY      0.01641     0.03808
            174  N 15 XZ      0.00968     0.01599
            175  N 15 YZ      0.01086     0.02155
            176  N 16  S      1.99233     1.97620
            177  N 16  S      0.81415     0.54761
            178  N 16  X      0.73409     0.66605
            179  N 16  Y      0.94672     0.88682
            180  N 16  Z      0.70770     0.65977
            181  N 16  S      0.99533     0.42158
            182  N 16  X      0.20753     0.36401
            183  N 16  Y      0.53685     0.57227
            184  N 16  Z      0.50484     0.53768
            185  N 16 XX      0.00157     0.19444
            186  N 16 YY     -0.01517     0.17565
            187  N 16 ZZ     -0.01977     0.16159
            188  N 16 XY      0.01806     0.03795
            189  N 16 XZ      0.00917     0.02098
            190  N 16 YZ      0.00745     0.00934

          ----- MULLIKEN ATOMIC OVERLAP POPULATIONS -----
          (OFF-DIAGONAL ELEMENTS NEED TO BE MULTIPLIED BY 2)

             1           2           3           4           5

    1    5.0406680
    2    0.3586536   0.6255680
    3    0.4975396  -0.0333546   4.7586409
    4   -0.0993748   0.0066940   0.4971263   5.0412738
    5    0.0066940  -0.0002017  -0.0334074   0.3588467   0.6263285
    6   -0.0434011   0.0003460  -0.0178178   0.4884217  -0.0509589
    7    0.0009832   0.0000179   0.0034691  -0.0384670  -0.0062797
    8   -0.0390923   0.0047930  -0.0342777  -0.0392403   0.0048014
    9    0.0049172  -0.0001697   0.0004777   0.0049197  -0.0001704
   10    0.4883941  -0.0509458  -0.0179719  -0.0431464   0.0003453
   11   -0.0384207  -0.0062874   0.0035124   0.0009762   0.0000179
   12   -0.0413242  -0.0142852   0.3401856  -0.0415191  -0.0140832
   13    0.0077817   0.0003680  -0.0500073  -0.0129916   0.0181256
   14    0.0001422   0.0000854   0.0060127  -0.0001922  -0.0003847
   15   -0.0001824  -0.0004041   0.0060289   0.0001373   0.0000820
   16   -0.0133972   0.0186956  -0.0499788   0.0078221   0.0003551

             6           7           8           9          10

    6    4.8855100
    7    0.3552569   0.6930125
    8    0.5401058  -0.0483298   4.8576270
    9   -0.0459567  -0.0069277   0.3590282   0.7006537
   10   -0.0284536   0.0049431   0.5404083  -0.0458191   4.8846232
   11    0.0049750  -0.0002262  -0.0485893  -0.0069414   0.3552812
   12    0.0058727  -0.0002144   0.0008379   0.0000057   0.0059605
   13    0.0004633  -0.0000030   0.0000059   0.0000000  -0.0001298
   14   -0.0000025   0.0000000   0.0000001   0.0000000   0.0000035
   15    0.0000035  -0.0000000   0.0000001   0.0000000  -0.0000026
   16   -0.0001288   0.0000005   0.0000060   0.0000000   0.0004717

            11          12          13          14          15

   11    0.6932591
   12   -0.0002160   4.8826932
   13    0.0000005   0.3835414   7.0335969
   14   -0.0000000  -0.1271700   0.3017483   6.8502385
   15    0.0000000  -0.1270172  -0.1055000   0.2549242   6.8500967
   16   -0.0000033   0.3838759  -0.1367658  -0.1056434   0.3012368

            16

   16    7.0343106

          TOTAL MULLIKEN AND LOWDIN ATOMIC POPULATIONS
       ATOM         MULL.POP.    CHARGE          LOW.POP.     CHARGE
    1 C             6.130581   -0.130581         6.119257   -0.119257
    2 H             0.909573    0.090427         0.884208    0.115792
    3 C             5.876178    0.123822         5.984445    0.015555
    4 C             6.131286   -0.131286         6.119345   -0.119345
    5 H             0.910110    0.089890         0.884491    0.115509
    6 C             6.094235   -0.094235         6.130094   -0.130094
    7 H             0.957235    0.042765         0.907715    0.092285
    8 C             6.098084   -0.098084         6.149194   -0.149194
    9 H             0.964017    0.035983         0.913219    0.086781
   10 C             6.093962   -0.093962         6.130026   -0.130026
   11 H             0.957338    0.042662         0.907701    0.092299
   12 C             5.637143    0.362857         6.055887   -0.055887
   13 N             7.440234   -0.440234         7.231741   -0.231741
   14 N             7.179762   -0.179762         7.175442   -0.175442
   15 N             7.179403   -0.179403         7.175299   -0.175299
   16 N             7.440857   -0.440857         7.231935   -0.231935

          -------------------------------
          BOND ORDER AND VALENCE ANALYSIS     BOND ORDER THRESHOLD=0.050
          -------------------------------

                   BOND                       BOND                       BOND
  ATOM PAIR DIST  ORDER      ATOM PAIR DIST  ORDER      ATOM PAIR DIST  ORDER
    1   2  1.082  0.927        1   3  1.408  1.397        1   6  2.788  0.083
    1  10  1.395  1.430        3   4  1.407  1.396        3   8  2.824  0.087
    3  12  1.465  1.080        4   5  1.082  0.928        4   6  1.395  1.429
    4  10  2.788  0.083        6   7  1.084  0.946        6   8  1.399  1.427
    8   9  1.085  0.947        8  10  1.398  1.426       10  11  1.085  0.946
   12  13  1.352  1.294       12  16  1.351  1.294       13  14  1.350  1.330
   13  15  2.213  0.059       14  15  1.357  1.350       14  16  2.212  0.059
   15  16  1.352  1.330

                       TOTAL       BONDED        FREE
      ATOM            VALENCE     VALENCE     VALENCE
    1 C                 3.901       3.901      -0.000
    2 H                 0.974       0.974       0.000
    3 C                 4.005       4.005       0.000
    4 C                 3.900       3.900       0.000
    5 H                 0.973       0.973      -0.000
    6 C                 3.914       3.914       0.000
    7 H                 0.960       0.960      -0.000
    8 C                 3.927       3.927      -0.000
    9 H                 0.960       0.960       0.000
   10 C                 3.915       3.915       0.000
   11 H                 0.959       0.959      -0.000
   12 C                 3.744       3.744      -0.000
   13 N                 2.791       2.791       0.000
   14 N                 2.798       2.798      -0.000
   15 N                 2.798       2.798      -0.000
   16 N                 2.792       2.792       0.000

          ---------------------
          ELECTROSTATIC MOMENTS
          ---------------------

 POINT   1           X           Y           Z (BOHR)    CHARGE
                -0.001540    0.000530    0.003019       -1.00 (A.U.)
         DX          DY          DZ         /D/  (DEBYE)
     8.103192    0.012301   -0.006782    8.103204
 ...... END OF PROPERTY EVALUATION ......
 STEP CPU TIME =     0.11 TOTAL CPU TIME =      401.8 (    6.7 MIN)
 TOTAL WALL CLOCK TIME=      403.0 SECONDS, CPU UTILIZATION IS  99.68%
  $VIB   
          IVIB=   0 IATOM=   0 ICOORD=   0 E=     -488.4972201650
  6.967638697E-03-2.558874354E-03 1.538614909E-03-2.249115589E-03 1.655763226E-03
 -1.588392990E-03-3.631695055E-03 8.606411748E-04 7.175639085E-04 6.650734693E-03
  2.072414179E-03-6.206136880E-03-2.217398175E-03-1.971532402E-03 8.739342205E-04
 -3.867375171E-03 3.706173594E-03 8.248247385E-04 2.075870020E-03-3.248295008E-03
  2.149184677E-03-3.387337980E-03 1.537772122E-04 5.610685031E-04 2.915639079E-03
 -1.300215635E-04-8.781521432E-04-4.501855450E-03-3.302797823E-03-1.570573110E-03
  1.867844311E-03 2.861958683E-03 9.085855281E-04-3.082157102E-04-1.524512534E-04
  8.577122790E-04-1.492536942E-02 1.577126694E-02 2.089287775E-03 1.518864326E-02
  2.108194790E-02 5.559530353E-04 1.450886896E-02-2.053184558E-02-2.950049762E-03
 -1.508687647E-02-1.626812493E-02 2.116575312E-03
  8.103192015E+00 1.230088277E-02-6.782205344E-03
 ......END OF GEOMETRY SEARCH......
 STEP CPU TIME =     0.00 TOTAL CPU TIME =      401.8 (    6.7 MIN)
 TOTAL WALL CLOCK TIME=      403.0 SECONDS, CPU UTILIZATION IS  99.68%

 AN AIMPAC INPUT FILE IS BEING WRITTEN TO FILE   7

              1230970  WORDS OF DYNAMIC MEMORY USED
 EXECUTION OF GAMESS TERMINATED NORMALLY Tue Apr 18 13:36:59 2023
 DDI: 263640 bytes (0.3 MB / 0 MWords) used by master data server.

 ----------------------------------------
 CPU timing information for all processes
 ========================================
 0: 392.552 + 9.220 = 401.772
 ----------------------------------------
 ddikick.x: exited gracefully.
----- accounting info -----
Files used on the master node rainier were:
-rw-r--r-- 1 jianhuang jianhanc   1681304 Apr 18 13:36 /home2/jianhuang/Downloads/charmm-gui-8183636055/gamess/src/b3lyp.dat
-rw-r--r-- 1 jianhuang jianhanc      1405 Apr 18 13:30 /home2/jianhuang/Downloads/charmm-gui-8183636055/gamess/src/b3lyp.F05
-rw-r--r-- 1 jianhuang jianhanc 901160096 Apr 18 13:34 /home2/jianhuang/Downloads/charmm-gui-8183636055/gamess/src/b3lyp.F08
-rw-r--r-- 1 jianhuang jianhanc   4319040 Apr 18 13:36 /home2/jianhuang/Downloads/charmm-gui-8183636055/gamess/src/b3lyp.F10
-rw-r--r-- 1 jianhuang jianhanc   4241344 Apr 18 13:35 /home2/jianhuang/Downloads/charmm-gui-8183636055/gamess/src/b3lyp.F22
Tue Apr 18 01:37:02 PM EDT 2023
0.0u 0.2s 6:46.60 0.0% 0+0k 424+8io 6pf+0w
